ITEM: TIMESTEP
6533268
ITEM: NUMBER OF ATOMS
24000
ITEM: BOX BOUNDS pp pp pp
-2.0834916256085023e-03 3.3247289394437317e+01
-2.0834916256085023e-03 3.3247289394437317e+01
-1.3007558410255911e+00 4.0024322667474132e+02
ITEM: ATOMS id type xs ys zs
180 1 0.0914749 0.103466 0.00173934
9406 1 1.00118 0.0505719 0.00359197
13374 1 0.509329 0.00665265 0.037925
14749 1 0.668186 -0.00271418 0.0223824
23099 1 0.183559 0.0585669 0.00477591
1191 1 0.231831 0.100226 0.000904386
13403 1 0.270875 0.0686431 0.00596553
15272 1 0.299902 0.157289 0.00131052
61 1 0.310613 0.0196206 0.000987325
11786 1 0.338127 0.0878283 0.00243811
11142 1 0.342539 0.0356402 0.00816279
1731 1 0.474167 0.0311572 0.00635085
825 1 0.41287 0.103435 0.00486163
12385 1 0.569308 0.042942 0.00800594
23714 1 0.56986 0.0904039 0.0031867
2214 1 0.482713 0.0836311 0.00113277
21390 1 0.102161 0.0207428 0.00267626
21572 1 0.654706 0.0723861 0.00406392
21310 1 0.635222 0.0716236 0.0104011
14442 1 0.713982 0.0346677 0.000606535
3019 1 0.759379 0.103167 0.00394229
15179 1 0.719954 0.059105 0.00855991
3157 1 0.876218 0.11923 0.00406349
10223 1 0.824971 0.039875 0.00199442
13277 1 0.894107 0.0461385 0.0102543
14661 1 0.810441 0.0208354 0.010431
2224 1 0.909357 0.0481695 0.00276361
10257 1 0.56464 0.010796 0.0254854
23491 1 0.0305981 0.239417 0.00373396
298 1 0.0792395 0.171107 0.00589077
1718 1 0.0132444 0.158086 0.00347345
12433 1 0.75763 0.306382 0.000140706
14998 1 0.139746 0.207466 0.00219102
73 1 0.161002 0.13127 0.00654253
930 1 0.803358 0.486016 0.0351681
22532 1 0.239564 0.140475 0.00735018
22983 1 0.326336 0.128099 0.00915788
21165 1 0.202886 0.230073 0.00633185
2574 1 0.297829 0.209058 0.0081973
9316 1 0.230463 0.181197 0.00142113
22959 1 0.452848 0.196783 0.00729485
22977 1 0.38164 0.189793 0.00322372
10577 1 0.501086 0.131102 0.00608322
9340 1 0.61904 0.00632543 0.0304145
10337 1 0.546341 0.184748 0.00444811
2633 1 0.424661 0.030255 0.0215979
10780 1 0.588022 0.131478 0.00878042
2472 1 0.624884 0.136816 0.00158545
9395 1 0.701955 0.142565 0.00826698
453 1 0.630047 0.207058 0.00506743
11601 1 0.601012 0.192325 0.0133177
21122 1 0.73654 0.45387 -0.00112322
21857 1 0.71033 0.185242 0.00311794
22083 1 0.811085 0.103015 0.00837864
9633 1 0.779276 0.23449 0.00092174
14099 1 0.883283 0.199297 0.007498
21845 1 0.81296 0.150416 0.00115697
1085 1 0.960593 0.186963 0.00899309
9187 1 0.950658 0.230824 0.00427688
2907 1 0.946618 0.109256 0.00778799
1926 1 0.105324 0.274203 0.00178689
1175 1 0.0720126 0.337494 0.00635931
10994 1 0.000166534 0.286795 0.00927888
692 1 0.0836966 0.262274 0.00928032
21934 1 0.168808 0.325067 0.0077112
540 1 0.142732 0.371738 0.00267279
12449 1 0.267782 0.312105 0.00601766
15217 1 0.355973 0.264096 0.00209804
1188 1 0.32106 0.358049 0.0027326
1370 1 0.239116 0.347004 0.000250337
14904 1 0.441156 0.27023 0.00388376
9044 1 0.346398 0.297325 0.0075158
93 1 0.502697 0.266087 0.00888357
1876 1 0.367356 0.388423 0.00697366
13364 1 0.399189 0.328874 0.00146154
11630 1 0.549622 0.288255 0.00391388
10183 1 0.503599 0.330534 0.00234554
13863 1 0.445177 0.346174 0.00769166
15087 1 0.644297 0.293089 0.00776182
2939 1 0.572068 0.371453 0.00347593
2417 1 0.633624 0.370573 0.00744814
9535 1 0.572971 0.325469 0.00987658
14739 1 0.616225 0.308301 0.00147315
12840 1 0.746499 0.253111 0.00893154
360 1 0.690488 0.353827 0.00226321
21210 1 0.737096 0.339162 0.00733219
12548 1 0.689618 0.268438 0.00281189
997 1 0.700585 0.499467 0.0157789
21652 1 0.826439 0.312094 0.00528959
1605 1 0.860052 0.389942 0.00488672
9198 1 0.986376 0.311891 0.00305627
13294 1 0.919907 0.317 0.00637877
2795 1 0.967923 0.380518 0.00633706
1983 1 0.0680606 0.417209 0.00378096
10202 1 0.137328 0.459811 0.00104189
10353 1 0.0391125 0.40073 0.00967982
2127 1 0.0578565 0.481588 0.00828885
13849 1 0.901513 0.492151 0.023353
2169 1 0.134415 0.484544 0.00824081
23482 1 0.213331 0.390998 0.00573063
13210 1 0.1388 0.406745 0.00859759
23548 1 0.00699363 0.420259 0.0325146
11382 1 0.200588 0.479715 0.00435243
2412 1 0.2859 0.42297 0.0038474
15171 1 0.111932 0.50012 0.0257581
718 1 0.351894 0.439057 0.00102135
344 1 0.431358 0.439106 0.00306804
9957 1 0.421613 0.445901 0.00999019
23967 1 0.66152 0.492909 0.0311786
13249 1 0.498442 0.425142 0.00661002
12853 1 0.656755 0.443908 0.0105955
401 1 0.728727 0.452141 0.0331503
13075 1 0.575996 0.451472 0.0052798
1275 1 0.65585 0.484516 0.00431735
21769 1 0.709582 0.397283 0.0126387
12507 1 0.707975 0.414927 0.00535782
23018 1 0.784121 0.381763 0.00188223
22221 1 0.854614 0.475495 0.00135682
717 1 0.805051 0.393349 0.0107891
23410 1 0.861471 0.459586 0.00847336
9618 1 0.792143 0.444144 0.00531989
14569 1 0.929918 0.458928 0.00202236
12580 1 0.942863 0.456268 0.00927029
14573 1 0.999619 0.459278 0.00396406
20608 1 0.122634 0.123402 0.0192587
9948 1 0.0711455 0.0717658 0.00775266
21702 1 0.0683767 0.0564217 0.0138872
2267 1 0.221138 0.0597749 0.0118206
23309 1 0.141316 0.0153823 0.0177693
88 1 0.15838 0.125808 0.0134018
22193 1 0.192804 0.0842642 0.0193892
2308 1 0.135583 0.0377331 0.010347
13172 1 0.938575 0.47675 0.0334064
12407 1 0.298062 0.0285571 0.0139447
21777 1 0.278119 0.0599689 0.021241
2314 1 0.342322 0.0999203 0.0150064
23406 1 0.364482 0.0949269 0.021344
13095 1 0.403637 0.0416167 0.0128746
1254 1 0.425739 0.107092 0.0161202
10850 1 0.477384 0.082472 0.0112596
2442 1 0.541195 0.0221412 0.0133355
23100 1 0.49884 0.0382393 0.0185076
21758 1 0.596589 0.0602758 0.0199412
2096 1 0.679669 0.0613064 0.0168802
1867 1 0.571195 0.102006 0.0146806
12652 1 0.657177 0.120124 0.0221071
1915 1 0.341331 0.211855 0.0390418
11646 1 0.756921 0.109318 0.0137076
2512 1 0.720911 0.0445985 0.022177
1794 1 0.74215 0.0104706 0.0143808
10004 1 0.804723 0.0496493 0.0207967
13675 1 0.83834 0.0739999 0.0149834
1690 1 0.951482 0.379407 0.0320174
404 1 0.983128 0.0456777 0.0115193
13272 1 0.941634 0.0968461 0.0153564
10009 1 0.0245336 0.112569 0.0176627
9909 1 0.0394112 0.203803 0.0121133
15015 1 0.0848827 0.146061 0.0118406
2766 1 0.0628406 0.208829 0.018125
21896 1 0.220423 0.2046 0.012836
14403 1 0.209337 0.161825 0.0190565
12824 1 0.139524 0.208338 0.00962794
10815 1 0.243799 0.23225 0.0181984
22759 1 0.153642 0.212187 0.0165675
21408 1 0.256301 0.120611 0.0146979
2942 1 0.289805 0.157664 0.0204441
20929 1 0.307406 0.18344 0.0142303
23999 1 0.323289 0.249657 0.0201651
23378 1 0.388121 0.17197 0.0173677
22720 1 0.40281 0.143463 0.0106794
699 1 0.385573 0.226985 0.0102908
22631 1 0.499187 0.126266 0.018313
14018 1 0.456768 0.184205 0.0154357
2671 1 0.521421 0.166895 0.0113598
13886 1 0.534696 0.218451 0.0152128
1472 1 0.653427 0.134874 0.0138796
14875 1 0.601852 0.172575 0.0186765
9963 1 0.666947 0.223932 0.0111045
10583 1 0.799015 0.17651 0.00739404
11614 1 0.747494 0.194864 0.0125182
9809 1 0.680505 0.182488 0.0173403
1434 1 0.733302 0.122462 0.0201749
1045 1 0.820881 0.169238 0.0144063
13304 1 0.0130591 0.11524 0.0111602
22332 1 0.972799 0.167584 0.0147698
10859 1 0.882273 0.129901 0.0118449
11156 1 0.901875 0.199286 0.0142182
12309 1 0.887834 0.136318 0.0182271
1906 1 0.0380555 0.319051 0.01363
12806 1 0.990103 0.25196 0.0160314
23497 1 0.101167 0.274283 0.0159179
1623 1 0.120234 0.349497 0.0131145
21342 1 0.177685 0.274222 0.0130014
22381 1 0.186872 0.284677 0.0206656
21406 1 0.123545 0.341681 0.0202628
23427 1 0.219052 0.359739 0.0126434
12166 1 0.266285 0.276053 0.0120447
13772 1 0.274696 0.321235 0.0179208
35 1 0.302516 0.368999 0.0106495
12405 1 0.342999 0.278921 0.0143809
14012 1 0.440722 0.28686 0.0131274
13135 1 0.352177 0.36024 0.0156088
23373 1 0.431042 0.325566 0.0203115
13752 1 0.400088 0.242968 0.0181618
12809 1 0.584545 0.248848 0.00921771
12457 1 0.527818 0.301514 0.0155737
502 1 0.489868 0.387359 0.0188714
2811 1 0.589838 0.339199 0.0181278
22188 1 0.618273 0.27565 0.0154567
622 1 0.572458 0.258159 0.0206691
12357 1 0.678278 0.315759 0.0198325
9861 1 0.787214 0.306993 0.0128008
23631 1 0.684054 0.308312 0.0126688
462 1 0.73238 0.259366 0.0168947
21582 1 0.748006 0.353552 0.0169084
12452 1 0.826877 0.244502 0.011814
13868 1 0.823839 0.362939 0.0177641
1225 1 0.820933 0.268416 0.0184025
21327 1 0.867805 0.330122 0.0112118
14822 1 0.930815 0.267416 0.0115732
21141 1 0.971937 0.337224 0.0198638
11608 1 0.888421 0.312115 0.0179029
9947 1 0.964682 0.352145 0.0135615
9310 1 0.0129836 0.483116 0.0133962
9105 1 0.085723 0.439717 0.0135562
10399 1 0.0491541 0.38783 0.0172817
10167 1 0.0255932 0.45493 0.0194716
1244 1 0.186707 0.425971 0.0135092
14686 1 0.123353 0.43555 0.019522
1719 1 0.458391 0.1585 3.72314e-05
12630 1 0.204648 0.381692 0.0188814
13732 1 0.397867 0.0153642 0.00244926
1037 1 0.223081 0.471236 0.0172713
11720 1 0.286341 0.412558 0.0178735
9539 1 0.267567 0.43509 0.0120502
11137 1 0.332366 0.468987 0.00828699
13114 1 0.35042 0.437729 0.0139311
9914 1 0.417888 0.431045 0.0174945
13928 1 0.420676 0.367669 0.0131211
12275 1 0.486936 0.432495 0.0129571
9054 1 0.479519 0.500723 0.00627898
23761 1 0.546539 0.41424 0.0166128
9497 1 0.507077 0.353496 0.0115626
577 1 0.577191 0.4271 0.0109911
14928 1 0.616683 0.443289 0.0183563
13378 1 0.638591 0.373294 0.0155528
22054 1 0.777066 0.454639 0.0155742
3314 1 0.705052 0.423892 0.0197683
11799 1 0.816921 0.438598 0.0213324
23496 1 0.894568 0.393909 0.0135977
14841 1 0.869331 0.471873 0.0161657
191 1 0.280238 0.2528 0.000627378
11996 1 0.907186 0.416587 0.0208948
22300 1 0.956674 0.437046 0.0165346
14491 1 0.0793698 0.0483025 0.0213995
1857 1 0.00271396 0.0168306 0.0259452
22747 1 0.0807268 0.0812254 0.0285581
14523 1 0.145068 0.0535064 0.0249799
2951 1 0.186862 0.0807025 0.0306533
21078 1 0.157777 0.134872 0.0259474
2769 1 0.239397 0.117894 0.0255503
22237 1 0.218679 0.0361613 0.0252327
10248 1 0.306007 0.0899378 0.027051
14251 1 0.464519 0.0580799 0.0287975
2855 1 0.361881 0.0323761 0.0258707
23665 1 0.392637 0.114926 0.0286405
1134 1 0.509836 0.073988 0.0249287
23972 1 0.547825 0.0873978 0.0310748
22940 1 0.439712 0.117045 0.0234473
13645 1 0.481284 0.14975 0.0293564
2089 1 0.134141 0.503222 0.0148041
10160 1 0.626951 0.0657647 0.0260099
23307 1 0.571967 0.118156 0.0241566
12079 1 0.697562 0.0826544 0.0275406
21160 1 0.765064 0.0968065 0.0260377
2028 1 0.762892 0.0264172 0.0296092
9448 1 0.894582 0.0550194 0.0205112
666 1 0.839741 0.082496 0.0264975
21886 1 0.825969 0.129147 0.020702
14497 1 0.943051 0.389086 0.0392871
9645 1 1.00307 0.0215152 0.018045
2273 1 0.906707 0.136337 0.0251528
22860 1 0.963347 0.087558 0.022511
880 1 0.920749 0.0578655 0.0279995
14517 1 0.04949 0.134015 0.0248024
15239 1 0.10323 0.183632 0.0250157
2247 1 0.0557301 0.187509 0.0304422
11935 1 0.0376451 0.225068 0.0246156
13760 1 0.183725 0.215312 0.0238386
14636 1 0.134825 0.236081 0.0294682
14089 1 0.222448 0.204938 0.0317256
11953 1 0.267236 0.222006 0.024689
3255 1 0.31672 0.167854 0.0298826
1753 1 0.255092 0.122283 0.0319829
15450 1 0.432658 0.194538 0.0239747
12257 1 0.355196 0.159876 0.0233289
2396 1 0.367152 0.220645 0.0264285
23315 1 0.391489 0.178733 0.0342847
22414 1 0.50321 0.184612 0.0233226
2309 1 0.439915 0.220297 0.0307406
15072 1 0.569738 0.169438 0.0325855
2934 1 0.508787 0.253338 0.0275788
2450 1 0.57286 0.197943 0.0250823
9545 1 0.650128 0.166111 0.0291326
2008 1 0.592932 0.255185 0.0292222
1801 1 0.739022 0.178792 0.027191
1758 1 0.751904 0.198369 0.0200676
12354 1 0.833519 0.168996 0.0262176
15165 1 0.854376 0.212314 0.0203536
14348 1 0.79527 0.245616 0.0267856
12927 1 0.964734 0.193257 0.0292984
23068 1 0.963434 0.174511 0.0221089
21268 1 0.902463 0.216494 0.0253707
13900 1 0.0336064 0.302949 0.0203092
23567 1 0.0633163 0.274429 0.0293978
3232 1 0.107102 0.26946 0.0227632
13413 1 0.13428 0.313582 0.0280946
313 1 0.210272 0.272496 0.0279371
15037 1 0.250956 0.36688 0.0300137
22686 1 0.269133 0.287737 0.0247185
14831 1 0.348564 0.319071 0.0216627
12479 1 0.336305 0.300162 0.0278635
3558 1 0.429877 0.279535 0.0254787
1765 1 0.485268 0.257091 0.020375
14210 1 0.51538 0.321512 0.0232454
12931 1 0.467652 0.285969 0.0343061
21732 1 0.589964 0.336639 0.0264984
10867 1 0.648583 0.224453 0.0225661
14857 1 0.554518 0.406687 0.0232672
23388 1 0.766862 0.312102 0.0221997
2995 1 0.686583 0.334891 0.0255355
3196 1 0.722625 0.248324 0.0260957
14 1 0.777739 0.314388 0.0290915
12425 1 0.868886 0.284643 0.0239282
166 1 0.855328 0.329973 0.0310558
340 1 0.931336 0.243705 0.0192152
13834 1 0.997861 0.351062 0.0275972
21831 1 0.958116 0.279041 0.0271955
14618 1 0.919593 0.345423 0.0261427
11215 1 0.0427151 0.451141 0.0263874
11460 1 0.0727817 0.33823 0.0250641
1720 1 0.358543 0.0213461 0.0178882
23971 1 0.0775212 0.361039 0.0310389
3262 1 0.111317 0.414524 0.0261127
22915 1 0.187673 0.369669 0.0252822
823 1 0.190059 0.447593 0.0241659
13295 1 0.300672 0.44679 0.0321788
14400 1 0.333513 0.386402 0.0287398
22375 1 0.282422 0.361118 0.0233877
1740 1 0.373049 0.406408 0.0226267
14058 1 0.269528 0.446502 0.0257293
21075 1 0.21418 0.440989 0.0306505
15292 1 0.805887 0.430275 0.0396522
9272 1 0.350434 0.486053 0.0260475
13625 1 0.410442 0.359262 0.0267696
206 1 0.435178 0.501952 0.025793
13825 1 0.489394 0.48806 0.0196232
1036 1 0.518983 0.489479 0.0273247
21323 1 0.546565 0.402979 0.0302251
844 1 0.474045 0.419632 0.025664
23590 1 0.961951 0.00128835 0.0311621
12225 1 0.635629 0.391502 0.0309645
12064 1 0.633936 0.389327 0.022949
2928 1 0.593882 0.450247 0.0277117
2387 1 0.730088 0.495484 0.0220831
9889 1 0.651685 0.478474 0.0232556
20760 1 0.708578 0.439771 0.0267897
1366 1 0.771721 0.382952 0.0253034
12928 1 0.891187 0.42501 0.0276301
11558 1 0.783542 0.47624 0.0267454
15368 1 0.850665 0.371437 0.0245961
22728 1 0.806137 0.41267 0.0303021
2983 1 0.984952 0.405417 0.0238092
11966 1 0.440493 0.0638183 0.0408384
10178 1 0.961519 0.472591 0.0274459
10495 1 0.067636 0.0194649 0.0315297
11040 1 1.00098 0.0678462 0.0335525
14410 1 0.068929 0.0596333 0.0388629
2937 1 0.699308 0.122372 6.77062e-05
2862 1 0.126914 0.0773162 0.0340158
21548 1 0.145366 0.027484 0.0390033
9845 1 0.311552 0.478117 0.0201536
620 1 0.199832 0.113074 0.0362317
21133 1 0.178309 0.405953 0.0406772
22863 1 0.334654 0.113051 0.0345399
1683 1 0.275494 0.0442801 0.0356136
62 1 0.274094 0.128802 0.0407696
23442 1 0.768283 0.00495498 0.00498052
23298 1 0.349518 0.0167697 0.033273
23912 1 0.356148 0.0421628 0.0397263
10235 1 0.405617 0.0644437 0.0338166
22215 1 0.483499 0.0863653 0.034167
1442 1 0.565094 0.492801 0.0340062
22906 1 0.591566 0.0339369 0.037025
14584 1 0.843025 0.00951053 0.0255876
13568 1 0.648289 0.0845642 0.0330898
13147 1 0.586063 0.115191 0.0369908
13002 1 0.627234 0.455584 0.0376586
9750 1 0.711167 0.0583544 0.03594
21912 1 0.728593 0.132007 0.0333979
2493 1 0.681668 0.124815 0.0404327
11731 1 0.850087 0.0380131 0.0408697
22500 1 0.86684 0.0268035 0.032975
12505 1 0.80684 0.0563895 0.035554
13853 1 0.835914 0.133884 0.0382646
9837 1 0.918502 0.0813028 0.0353216
164 1 0.975564 0.111497 0.02895
856 1 0.878299 0.420515 0.0347182
1466 1 0.0732856 0.128409 0.034459
12643 1 0.0431786 0.181588 0.0404118
884 1 0.993652 0.243374 0.0347437
10587 1 0.0968675 0.220528 0.0360562
14803 1 0.17612 0.251135 0.035806
12811 1 0.146406 0.167907 0.0323979
14008 1 0.124108 0.158819 0.0395859
12296 1 0.269269 0.032098 0.0297821
3404 1 0.284291 0.190602 0.0357251
3350 1 0.377598 0.119358 0.0395956
12124 1 0.421318 0.244566 0.037745
1677 1 0.556838 0.18983 0.0410115
14361 1 0.534117 0.241784 0.0348895
12130 1 0.488305 0.180757 0.0359461
22143 1 0.488921 0.249007 0.0407179
11717 1 0.734777 0.48955 0.00872624
2635 1 0.647863 0.161133 0.035258
15216 1 0.209702 0.0545925 0.0391632
9262 1 0.617382 0.25927 0.0368145
22474 1 0.711134 0.216081 0.032498
9511 1 0.804492 0.124394 0.0313689
12293 1 0.675806 0.222113 0.0386978
21472 1 0.757944 0.171593 0.0382441
3536 1 0.886917 0.152575 0.0320172
21488 1 0.788918 0.217227 0.0325229
22768 1 0.841519 0.214225 0.0382273
11442 1 0.757837 0.242936 0.0395918
23690 1 0.900974 0.143172 0.0401329
14090 1 0.97741 0.156516 0.0347487
21930 1 0.915907 0.206779 0.0354912
14532 1 0.0437788 0.267313 0.0399058
13350 1 0.110894 0.302274 0.0349647
12334 1 0.0112569 0.329537 0.0342489
3117 1 0.204319 0.311719 0.0331418
11157 1 0.118547 0.319354 0.041746
1142 1 0.20114 0.336264 0.0388484
1120 1 0.164043 0.382643 0.0339641
22236 1 0.256713 0.263022 0.037883
21811 1 0.274714 0.262103 0.0314551
10555 1 0.305617 0.315965 0.0347724
14230 1 0.472946 0.342136 0.029917
448 1 0.347907 0.373642 0.0347233
12938 1 0.398047 0.310864 0.0324422
14356 1 0.350557 0.252387 0.0328889
9985 1 0.37712 0.300664 0.038937
21721 1 0.427065 0.388592 0.0360108
2619 1 0.458372 0.325339 0.0400484
12976 1 0.573765 0.404465 0.0359318
1293 1 0.651661 0.29955 0.0302422
9566 1 0.5356 0.0765183 0.0404668
23255 1 0.547884 0.310949 0.0396815
9132 1 0.559451 0.313593 0.0330393
21223 1 0.624088 0.339866 0.0368273
9436 1 0.714004 0.293007 0.0349038
3269 1 0.729016 0.369122 0.0311104
1420 1 0.707415 0.389035 0.0361344
9519 1 0.875845 0.253292 0.0311564
829 1 0.888173 0.27298 0.0376402
9800 1 0.775345 0.358816 0.0358181
2600 1 0.808425 0.293329 0.0348289
9034 1 0.866294 0.351511 0.0380765
13911 1 0.939089 0.299674 0.0333857
820 1 0.964824 0.300029 0.0394949
11650 1 0.0276156 0.363387 0.0405044
11205 1 0.0308737 0.457784 0.0375112
3022 1 0.0829731 0.457566 0.0316404
23376 1 0.0992485 0.370303 0.0371842
13046 1 0.946628 0.00704061 0.0379657
2528 1 0.230529 0.465648 0.0360344
21086 1 0.118212 0.441001 0.0379994
13351 1 0.513126 0.491957 0.0391535
23512 1 0.291932 0.478732 0.0390899
12448 1 0.261668 0.389059 0.0355795
9850 1 0.416966 0.438371 0.0302335
13686 1 0.374162 0.451192 0.0365239
11327 1 0.863845 0.255648 0.00209991
1384 1 0.496702 0.421683 0.0348523
14233 1 0.216549 0.196345 0.0408418
14074 1 0.498425 0.404488 0.0410565
12918 1 0.999881 0.10695 0.0402219
12254 1 0.154851 0.503276 0.0357856
14877 1 0.765306 0.077769 0.0406038
9499 1 0.656937 0.398666 0.0413181
21457 1 0.0693435 0.496838 0.000704222
1183 1 0.936205 -0.00157008 0.0153917
12752 1 0.538963 0.494527 0.012769
13367 1 0.432058 0.493785 0.0383403
14203 1 0.295268 0.326848 0.0408856
264 1 0.543669 0.0219848 0.000857523
12172 1 0.202916 0.274462 0.000885519
701 1 0.593247 0.23101 -0.000716215
1354 1 0.504461 0.236657 0.000220325
21142 1 0.0025165 0.0814088 0.0487535
12323 1 0.0927187 0.0683377 0.0490368
13912 1 0.0234575 0.0307773 0.0428445
23995 1 0.166796 0.0974803 0.0506299
21164 1 0.163508 0.0211506 0.0477085
11383 1 0.266674 0.400624 0.0418826
12589 1 0.235479 0.0409082 0.0456663
1278 1 0.145207 0.0847781 0.0432366
12388 1 0.307292 0.0135372 0.0538535
455 1 0.297205 0.0743193 0.0462541
23509 1 0.349554 0.00397482 0.0468844
12563 1 0.420082 0.0306855 0.0471727
14589 1 0.447535 0.108345 0.0499872
13731 1 0.341262 0.0791685 0.0514848
12578 1 0.501244 0.0605693 0.0466014
2054 1 0.594997 0.0951379 0.0458508
11591 1 0.667635 0.0316364 0.0502687
14781 1 0.57501 -0.00135972 0.0520257
22543 1 0.568162 0.0243307 0.0451394
2780 1 0.763588 0.109527 0.0473082
79 1 0.679281 0.112161 0.0472987
2016 1 0.705125 0.118811 0.0531841
12050 1 0.924828 0.0615688 0.0424683
23035 1 0.716351 0.0409679 0.0438823
14729 1 0.812842 0.0308356 0.0471954
23101 1 0.458136 0.0123086 0.0581657
2695 1 0.832813 0.100903 0.0447871
3618 1 0.187192 0.494483 0.079146
12132 1 0.958201 0.113623 0.0520794
12510 1 0.897464 0.0611652 0.0495109
13299 1 0.0607463 0.110862 0.0444201
11693 1 0.12173 0.16245 0.0465031
12844 1 0.0043608 0.158227 0.0460251
9035 1 0.0592681 0.220213 0.0458508
11947 1 0.20969 0.115961 0.0447973
9351 1 0.136817 0.234765 0.049345
21644 1 0.658757 0.301905 0.0419183
3957 1 0.256643 0.141343 0.0494293
12901 1 0.241349 0.218921 0.0478087
14750 1 0.294827 0.249264 0.044207
2778 1 0.320687 0.153865 0.0460858
23123 1 0.313224 0.213798 0.0509648
1517 1 0.391825 0.194678 0.0445111
2656 1 0.380399 0.0951191 0.0452742
12702 1 0.338382 0.404413 0.0405792
14014 1 0.473441 0.194007 0.0478102
22783 1 0.525617 0.135906 0.0445413
1553 1 0.615841 0.232329 0.044913
1666 1 0.566475 0.185066 0.0479826
14154 1 0.641101 0.193968 0.0502458
2950 1 0.711533 0.189781 0.0445564
3523 1 0.780375 0.250531 0.0485984
10964 1 0.85917 0.20712 0.0472509
10563 1 0.788288 0.177278 0.0455047
22110 1 0.902954 0.250696 0.0443355
3357 1 0.0968461 0.495516 0.0673077
2108 1 0.919122 0.133578 0.0467144
10691 1 0.951081 0.199369 0.0501509
1276 1 0.74738 0.0034125 0.0499702
21984 1 0.062751 0.311527 0.0466381
23216 1 0.985489 0.332872 0.0454994
13468 1 0.162448 0.312856 0.0487463
2263 1 0.21532 0.274843 0.0433296
1919 1 0.778026 0.489675 0.0588813
23815 1 0.253567 0.306714 0.0497084
1224 1 0.337683 0.289103 0.0500193
671 1 0.404765 0.236111 0.0498222
13504 1 0.375572 0.351725 0.0446161
1537 1 0.416794 0.278811 0.044612
2152 1 0.54604 0.265243 0.0453462
13997 1 0.481692 0.282726 0.049965
15035 1 0.512475 0.32854 0.0451734
13933 1 0.544877 0.340283 0.051459
23126 1 0.625261 0.285989 0.0499775
944 1 0.636953 0.239379 0.0559136
15188 1 0.590509 0.36084 0.0432692
21628 1 0.689136 0.340968 0.0471646
11506 1 0.704173 0.257425 0.046081
14179 1 0.763932 0.338363 0.0488988
10840 1 0.739252 0.314874 0.0415834
21128 1 0.844524 0.302762 0.0499624
13668 1 0.825308 0.395833 0.0499739
751 1 0.834503 0.281468 0.0432915
14335 1 0.995685 0.258195 0.0450778
15286 1 0.894988 0.335643 0.0443571
14190 1 0.0942705 0.391241 0.0437854
9292 1 0.0127648 0.425492 0.0448249
13366 1 0.0755748 0.466043 0.0494295
2296 1 0.0302201 0.385258 0.0494111
2794 1 0.20138 0.382138 0.0465142
14256 1 0.124729 0.378515 0.0508095
13397 1 0.137294 0.446908 0.0465467
10367 1 0.33411 0.463888 0.0490726
13209 1 0.250126 0.445448 0.0478694
14470 1 0.312283 0.359266 0.0466568
9733 1 0.716657 0.468338 0.0424515
23230 1 0.392749 0.414256 0.0494427
11595 1 0.405942 0.506575 0.0505409
21069 1 0.413942 0.423892 0.0426336
11697 1 0.503419 0.468069 0.045324
22780 1 0.470752 0.385192 0.0469336
22555 1 0.543771 0.406226 0.0473945
13515 1 0.643242 0.400381 0.046998
12776 1 0.64906 0.481579 0.0454046
142 1 0.48393 0.0141685 0.0515715
14888 1 0.45447 0.148323 0.0419615
21554 1 0.352248 0.494674 0.0553654
781 1 0.733423 0.398624 0.0429495
210 1 0.711973 0.426316 0.0510596
21479 1 0.823929 0.454466 0.0788968
10661 1 0.793188 0.454002 0.0466029
23552 1 0.868114 0.48153 0.047819
883 1 0.814598 0.363924 0.0437247
10975 1 0.718507 0.445152 0.0809714
11896 1 0.912053 0.410456 0.0485096
2418 1 0.00117486 0.480761 0.0511949
13840 1 0.939297 0.474665 0.0464868
22286 1 0.00531821 0.0239721 0.0601812
22496 1 0.0456897 0.0397675 0.0545666
13649 1 0.109672 0.0926347 0.0561533
1007 1 0.0121701 0.102838 0.0576553
21419 1 0.149139 0.0378181 0.0558402
23463 1 0.189281 0.107016 0.0575406
21398 1 0.128183 0.0789249 0.0621884
1515 1 0.245726 0.0696926 0.0515302
2138 1 0.24933 0.0280469 0.0600894
12189 1 0.323115 0.0672806 0.0595334
621 1 0.393401 0.0225427 0.0544851
22452 1 0.390233 0.109916 0.0567341
21671 1 0.265165 0.485222 0.0793235
2712 1 0.464293 0.085223 0.0559213
14543 1 0.54107 0.0744988 0.0550319
10624 1 0.512929 0.141391 0.058636
23129 1 0.606917 0.105057 0.0518772
10950 1 0.63491 0.00739099 0.0575134
9702 1 0.606221 0.0894173 0.0602645
12779 1 0.522757 0.144739 0.0520223
14228 1 0.706632 0.0333853 0.0561591
15255 1 0.750273 0.0801005 0.0595306
23812 1 0.762507 0.00858189 0.0622053
14670 1 0.807017 0.00928445 0.0570664
22477 1 0.788359 0.0731105 0.0529548
21184 1 0.867242 0.0202636 0.0631299
10688 1 0.858062 0.141294 0.0507346
1404 1 0.817939 0.104281 0.0594305
14393 1 0.875056 0.0643734 0.0562126
21023 1 0.971375 0.0235843 0.0530863
11438 1 0.93978 0.0755341 0.0598264
14244 1 0.052871 0.138973 0.0509561
14774 1 0.0543394 0.165343 0.0589322
13269 1 0.0620717 0.209657 0.0529302
2066 1 0.184501 0.171287 0.0496137
2462 1 0.136915 0.167676 0.0558229
2191 1 0.201663 0.198456 0.0608394
9084 1 0.137513 0.242156 0.0570099
9890 1 0.129126 0.150893 0.0622827
21664 1 0.236075 0.172015 0.0554095
23607 1 0.302125 0.125202 0.0548786
33 1 0.262203 0.126109 0.0609246
3509 1 0.28587 0.206981 0.0600438
14301 1 0.358397 0.203991 0.0569868
13204 1 0.350858 0.139539 0.0614751
1871 1 0.370269 0.151003 0.0515118
12274 1 0.44088 0.165814 0.0580644
22080 1 0.494245 0.207794 0.0559782
2471 1 0.508883 0.286717 0.0578871
13241 1 0.563562 0.249546 0.0524575
14015 1 0.504427 0.209998 0.0621424
1319 1 0.57917 0.156728 0.0566441
8750 1 0.629186 0.176126 0.0623077
23667 1 0.784002 0.178995 0.0518183
1566 1 0.655047 0.148769 0.0572599
13130 1 0.748351 0.159373 0.058237
13113 1 0.705276 0.209284 0.053278
1610 1 0.828361 0.191435 0.0592558
12428 1 0.808748 0.242702 0.0546468
23770 1 0.880714 0.213305 0.0528916
12820 1 0.90913 0.146123 0.0575008
22829 1 0.897827 0.207101 0.0608927
22692 1 0.980238 0.187791 0.0570485
599 1 0.0155116 0.275075 0.0515337
11605 1 0.0439752 0.261896 0.0580036
12621 1 0.103366 0.285634 0.0522559
15376 1 0.0561478 0.340329 0.0548427
22967 1 0.18132 0.326772 0.0552243
9729 1 0.212979 0.238616 0.0536756
13276 1 0.113354 0.335157 0.0593969
14667 1 0.194649 0.288857 0.062057
14638 1 0.273802 0.26098 0.0551934
10586 1 0.268277 0.328177 0.0587864
1226 1 0.415622 0.323038 0.0492574
9953 1 0.416734 0.272218 0.0558135
8916 1 0.334325 0.346874 0.0541133
15205 1 0.342329 0.274337 0.0585102
11507 1 0.496129 0.294171 0.0637059
21481 1 0.484364 0.430685 0.059713
899 1 0.475242 0.359174 0.0524337
1591 1 0.527621 0.365463 0.0586731
20932 1 0.598283 0.331042 0.0574277
23383 1 0.676588 0.294078 0.0595641
14390 1 0.580582 0.235371 0.0599324
14850 1 0.658589 0.353603 0.0541514
23342 1 0.724947 0.288836 0.0535903
1438 1 0.701922 0.212311 0.0606658
23979 1 0.762553 0.270604 0.0597783
10047 1 0.729891 0.365826 0.0567764
2805 1 0.87179 0.295366 0.0570477
15432 1 0.803112 0.345441 0.055048
13358 1 0.927308 0.28864 0.049994
22030 1 0.947771 0.249759 0.0558799
13418 1 0.969588 0.349947 0.0526079
14783 1 0.8824 0.368903 0.0552462
10054 1 0.976288 0.34378 0.0587457
45 1 0.0643843 0.462206 0.0610912
21576 1 0.0505507 0.413279 0.0545677
10435 1 0.710694 0.00221434 0.0806334
2846 1 0.129166 0.414858 0.0565222
1483 1 0.183211 0.435653 0.0517752
13505 1 0.147344 0.483285 0.0607239
557 1 0.188077 0.370961 0.0604996
12520 1 0.307829 0.424284 0.0537936
13565 1 0.238958 0.380133 0.052937
10097 1 0.271325 0.398045 0.0611529
14247 1 0.234277 0.455369 0.0565558
13213 1 0.331204 0.456846 0.0608093
12830 1 0.366487 0.343027 0.0603658
13533 1 0.422881 0.474394 0.0586065
22274 1 0.408871 0.398536 0.0568516
23880 1 0.46095 0.43993 0.0513049
13145 1 0.547848 0.45879 0.0630313
10314 1 0.542974 0.427509 0.0545315
12068 1 0.627822 0.416892 0.0547002
1630 1 0.591623 0.465339 0.0501086
12416 1 0.597428 0.397522 0.0609157
14227 1 0.599913 0.483325 0.058379
1392 1 0.667295 0.357918 0.0613436
15526 1 0.36677 0.215906 0.0828944
11401 1 0.679609 0.443514 0.0579943
11072 1 0.730206 0.468899 0.0631345
13674 1 0.785079 0.436119 0.0544926
23431 1 0.838634 0.400517 0.0602026
2102 1 0.125483 0.435786 0.0815926
22970 1 0.872137 0.450874 0.053957
907 1 0.932675 0.411208 0.0606057
12193 1 0.961043 0.427643 0.0539832
22827 1 0.903594 0.467427 0.0770615
21879 1 0.986349 0.465319 0.0595145
1198 1 0.0594635 0.0761925 0.0627203
1259 1 -0.00445588 0.0888211 0.0672802
1999 1 0.0305869 0.0102133 0.0665645
10573 1 0.122909 0.0316826 0.0680916
3372 1 0.204249 0.0809521 0.0649317
12283 1 0.203692 0.0428955 0.0718482
14602 1 0.0969418 0.106699 0.0692315
12364 1 0.592424 0.398777 0.0816191
12848 1 0.29286 0.0416121 0.0715499
22170 1 0.288954 0.0768246 0.0656363
23755 1 0.43179 0.0889159 0.0620606
11790 1 0.388631 0.027447 0.0716414
1972 1 0.372123 0.091034 0.0672199
10939 1 0.447929 0.0867595 0.0705052
14646 1 0.37407 0.0150873 0.0636651
10084 1 0.55825 0.0234651 0.0605736
22727 1 0.454646 0.0145112 0.066576
10179 1 0.532445 0.0435289 0.0691289
419 1 0.501397 0.059769 0.0631043
11825 1 0.596955 0.042991 0.0658473
3423 1 0.660083 0.0198992 0.0701464
14999 1 0.637517 0.121939 0.0670089
14395 1 0.800442 0.0110425 0.0696581
12067 1 0.731132 0.0546976 0.0679938
3097 1 0.775269 0.0948395 0.0727857
14175 1 0.677035 0.037866 0.063574
13595 1 0.780766 0.124402 0.0648194
3287 1 0.813479 0.0614078 0.064577
12969 1 -0.00121414 0.0101573 0.0794339
1813 1 0.84195 0.0930189 0.069779
1253 1 0.918639 0.0611153 0.0670734
3085 1 0.92072 0.129673 0.0699517
461 1 0.886037 0.0105765 0.0712381
11629 1 0.109494 0.239347 0.0628955
3387 1 0.0680117 0.164355 0.0657944
21255 1 1.00658 0.218953 0.0630067
946 1 0.0485159 0.241818 0.0673938
13371 1 0.175174 0.142108 0.0682523
15105 1 0.256899 0.176724 0.066047
13296 1 0.255344 0.123735 0.0706175
21550 1 0.329625 0.170955 0.0707851
22425 1 0.341497 0.218794 0.0652581
12110 1 0.409484 0.259622 0.0617163
272 1 0.400426 0.170669 0.0652882
10116 1 0.389616 0.249468 0.0706072
15135 1 0.478668 0.138575 0.0648757
1340 1 0.529634 0.210376 0.0717352
12285 1 0.536754 0.143542 0.0716118
342 1 0.447688 0.16454 0.0720206
1912 1 0.560237 0.126154 0.0638917
2366 1 0.575887 0.238605 0.066502
12342 1 0.627599 0.192506 0.0722813
10689 1 0.689363 0.123332 0.0625262
12917 1 0.714925 0.18276 0.0690015
15224 1 0.774905 0.215725 0.0648632
15148 1 0.782206 0.211777 0.0740525
1581 1 0.889092 0.123285 0.0628824
11505 1 0.839655 0.178764 0.0675247
9996 1 0.842703 0.254787 0.0639154
9956 1 0.849739 0.163201 0.0736976
12260 1 0.845264 0.252622 0.0712828
15493 1 0.979295 0.136227 0.0623916
2333 1 0.98285 0.186117 0.0686787
11822 1 0.90898 0.214798 0.0673403
10804 1 0.978096 0.281908 0.068705
12895 1 0.030951 0.306663 0.0635407
1000 1 0.0402367 0.384634 0.0611637
11226 1 0.0811485 0.297228 0.072355
2132 1 0.0588733 0.363185 0.0689937
21606 1 0.146023 0.361895 0.0701104
22079 1 0.11014 0.301368 0.0663692
966 1 0.185089 0.226887 0.0668892
14255 1 0.192639 0.288678 0.0698912
14644 1 0.225531 0.346687 0.0648599
23479 1 0.293283 0.250672 0.0723442
12823 1 0.263425 0.261152 0.0645851
23949 1 0.280831 0.31651 0.0689962
12787 1 0.445322 0.340059 0.0599104
21763 1 0.361607 0.30552 0.0667826
3031 1 0.443173 0.326381 0.0672954
13244 1 0.497387 0.376462 0.0661052
15473 1 0.457635 0.235906 0.0671071
11242 1 0.52953 0.327211 0.0706025
11633 1 0.466752 0.367933 0.0730234
439 1 0.577961 0.326235 0.0645792