ITEM: TIMESTEP
6299937
ITEM: NUMBER OF ATOMS
24000
ITEM: BOX BOUNDS pp pp pp
-2.0834916256085023e-03 3.3247289394437317e+01
-2.0834916256085023e-03 3.3247289394437317e+01
-1.3494047249392338e+00 4.0029187555866071e+02
ITEM: ATOMS id type xs ys zs
22720 1 0.0281162 0.0479856 0.0107598
22829 1 0.948506 0.0246782 0.00961159
10520 1 0.0391088 0.0995664 0.00409089
12061 1 0.03307 0.123478 0.0151709
21486 1 0.331112 0.436397 0.00348095
10004 1 0.812582 0.220011 0.0020675
2560 1 0.121028 0.079883 0.00637822
14756 1 0.702748 0.0833376 0.00539747
1322 1 0.309671 0.0495138 0.00820268
13091 1 0.209618 0.161892 0.00583063
23710 1 0.196165 0.0805328 0.00411703
2926 1 0.433324 0.137883 0.00520765
10914 1 0.39575 0.059471 0.0045917
11581 1 0.336635 0.115922 0.0034241
9870 1 0.249089 0.0145171 0.018136
9916 1 0.656466 0.0127538 0.00303397
22001 1 0.472979 0.0677047 0.00361157
9890 1 0.25426 0.488659 0.0343855
23342 1 0.160624 0.477712 0.0373257
11024 1 0.516295 0.102658 0.00861985
9051 1 0.301613 -0.00252953 0.036359
12539 1 0.790273 0.0339654 0.00865428
13173 1 0.607592 0.149465 0.00684829
1948 1 0.483559 0.159081 0.000481566
20910 1 0.857033 0.0911178 0.0110981
12313 1 0.838409 0.0783656 0.00351266
2766 1 0.270803 0.332687 0.040669
370 1 0.93107 0.122682 0.00524337
3168 1 0.910724 0.166873 0.00948522
10239 1 0.970023 0.176099 0.000804141
2831 1 0.472152 0.473712 0.0290957
3146 1 0.0503243 0.471829 0.0117862
2247 1 0.0677612 0.184141 0.00931785
1602 1 0.0720821 0.259635 0.0056579
12963 1 0.0251847 0.266827 0.0111676
23463 1 0.082641 0.0187889 0.0310092
21895 1 0.220795 0.218288 0.00146334
11735 1 0.17131 0.232798 0.00642598
461 1 0.429965 0.0167504 0.0385651
10587 1 0.364497 0.195728 0.0080173
21069 1 0.254219 0.106325 0.00864216
21887 1 0.300473 0.179167 0.00342408
9745 1 0.368773 0.115094 0.00935389
14107 1 0.852615 0.155529 0.000484933
12910 1 0.460833 0.202301 0.0060229
13308 1 0.500163 0.237927 0.0102843
10764 1 0.536706 0.172636 0.00822908
14054 1 0.573008 0.244903 0.00972914
9084 1 0.735127 0.00773678 0.00123543
359 1 0.760993 0.145494 0.00480769
2689 1 0.659562 0.286935 0.00760706
2817 1 0.842115 0.265663 0.00687168
21743 1 0.838919 0.161955 0.00804949
1820 1 0.323545 0.0444019 0.0289526
12332 1 0.908113 0.213793 0.0032922
2156 1 0.965223 0.24741 0.00193624
23105 1 0.871606 0.219333 0.0128802
569 1 0.993591 0.114376 0.00915233
23084 1 0.98697 0.196228 0.0078596
10223 1 0.0717852 0.335849 0.00427623
21132 1 0.0732077 0.325445 0.0122149
12275 1 0.693005 0.0213671 0.00930532
14904 1 0.344388 0.481937 0.0105832
23410 1 0.123989 0.275604 0.000971757
21671 1 0.324922 0.490004 0.0262031
10142 1 0.196567 0.30534 0.00221015
23141 1 0.301822 0.326236 0.00186334
22923 1 0.631737 0.48587 0.00615846
12673 1 0.414306 0.438775 0.0017489
10549 1 0.370257 0.260914 0.00190676
21235 1 0.448022 0.295291 0.00412048
10980 1 0.350339 0.474136 0.0336025
21208 1 0.475399 0.368147 0.00486479
11930 1 0.423123 0.34541 0.0108541
9158 1 0.53977 0.221254 0.00302718
3350 1 0.493286 0.438204 0.00868337
23778 1 0.553145 0.493554 0.0087541
10321 1 0.702334 0.331508 0.000952771
14711 1 0.569101 0.294352 0.00397571
10375 1 0.539556 0.368904 0.0089618
1164 1 0.628242 0.211675 0.00407937
22425 1 0.629355 0.346704 0.00258725
330 1 0.76321 0.410765 0.00963875
22234 1 0.77025 0.311416 0.00691958
2089 1 0.769355 0.372453 0.00263717
10031 1 0.902226 0.310101 0.00471387
1406 1 0.832205 0.457533 0.00644765
12635 1 0.845259 0.371477 0.00704546
12438 1 0.919468 0.0178596 0.0320042
1903 1 0.927186 0.391969 0.00642535
11393 1 0.986511 0.30579 0.00426459
21398 1 0.576153 0.0627554 0.00362241
13055 1 0.0783124 0.404521 0.00918301
145 1 0.0413645 0.481621 0.00528667
3028 1 0.0715147 0.422448 0.00213522
11444 1 0.252042 0.382442 0.00559001
196 1 0.146251 0.390729 0.00510266
22539 1 0.125325 0.468089 0.00549151
12993 1 0.203207 0.467763 0.00463843
14089 1 0.165478 0.496665 0.0308492
9590 1 0.27405 0.458957 0.00704277
23426 1 0.165391 0.00828457 0.00467873
2408 1 0.389495 0.412673 0.00910714
9510 1 0.420468 0.488088 0.00937833
3157 1 0.942726 0.374045 -0.000304613
23821 1 0.225968 0.0323428 0.0110885
10248 1 0.490666 0.456456 0.00163255
15291 1 0.907208 0.0426573 0.00253144
12565 1 0.584575 0.467613 0.00107076
2518 1 0.533916 0.48315 0.0416413
23967 1 0.2478 0.49476 0.0268504
13351 1 0.666799 0.420855 0.00411574
22193 1 0.710378 0.493012 0.0100969
21702 1 0.7443 0.449068 0.00421124
578 1 0.692204 0.162516 0.00197102
2794 1 0.294559 0.177565 0.0396062
2939 1 0.907068 0.447982 0.0103721
1666 1 0.148676 0.471625 0.0120365
14573 1 0.225543 0.469008 0.0408996
453 1 0.0125691 0.381946 0.00565947
11895 1 0.895591 0.438454 0.00201773
2983 1 0.909982 0.469992 0.0325223
11552 1 0.0191589 0.0980706 0.027889
21146 1 0.0974168 0.112746 0.0116064
13929 1 0.985769 0.0639892 0.0179944
23765 1 0.0780312 0.0297091 0.0161155
1468 1 0.359606 0.0485101 0.0378134
1014 1 0.138438 0.0330292 0.0115531
9703 1 0.17781 0.102344 0.0104423
22154 1 0.158566 0.0214274 0.020023
10950 1 0.215777 0.0907746 0.0169155
14344 1 0.28762 0.0717725 0.0144435
13532 1 0.878111 0.0247989 0.0145805
10254 1 0.366279 0.100342 0.0155976
22915 1 0.365695 0.164545 0.0231707
10624 1 0.348163 0.0514447 0.0220722
13146 1 0.37759 0.17617 0.0158429
21653 1 0.433787 0.0650921 0.01091
2355 1 0.439568 0.0933171 0.0173971
1578 1 0.511642 0.103129 0.015087
22783 1 0.90256 0.47796 0.0408331
23473 1 0.727142 0.246658 0.00337709
622 1 0.560838 0.0444125 0.0109856
10802 1 0.632712 0.0665858 0.00850747
14028 1 0.588451 0.0538385 0.0193045
14091 1 0.673529 0.00888831 0.0326139
13491 1 0.256298 0.0195504 0.00433973
21180 1 0.765757 0.110187 0.0120317
14714 1 0.675115 0.104762 0.0131672
479 1 0.758549 0.145132 0.0207592
12670 1 0.81293 0.0821692 0.0174118
23100 1 0.935622 0.0864201 0.0128481
11460 1 0.897494 0.0857889 0.0191197
11977 1 0.058411 0.0930469 0.0221141
22759 1 0.0972958 0.181661 0.0200049
401 1 0.0471723 0.215921 0.0162676
20943 1 0.0140779 0.181161 0.0228043
981 1 0.121753 0.16202 0.00532659
13167 1 0.126742 0.262018 0.0117574
14230 1 0.156488 0.185788 0.0122407
23642 1 0.195916 0.252454 0.0131971
14569 1 0.239299 0.18033 0.0143249
11382 1 0.305607 0.153256 0.0117951
9483 1 0.322425 0.233721 0.011647
11741 1 0.261824 0.213025 0.00851052
79 1 0.296097 0.21557 0.0171594
9455 1 0.417572 0.247834 0.0120236
12185 1 0.374239 0.248677 0.0199586
9766 1 0.49216 0.305221 0.0090404
756 1 0.432307 0.181007 0.0194152
22686 1 0.463776 0.162622 0.0120142
13535 1 0.655165 0.186725 0.0186387
22729 1 0.595096 0.131449 0.0135422
2565 1 0.624073 0.222883 0.0239089
13760 1 0.691566 0.178612 0.00779249
3032 1 0.637384 0.213327 0.0120574
14841 1 0.781335 0.222842 0.0104507
122 1 0.723373 0.254982 0.0127676
856 1 0.694463 0.172424 0.0243332
21440 1 0.76906 0.328591 0.020085
8773 1 0.863363 0.239367 0.019843
62 1 0.811915 0.164303 0.01672
1639 1 0.816874 0.276354 0.0146551
13794 1 0.881656 0.145838 0.0150894
1148 1 0.958547 0.15965 0.0148763
1345 1 0.957158 0.112065 0.0227993
23658 1 0.0189529 0.311843 0.0167916
11515 1 0.144607 0.321642 0.00767893
210 1 0.102475 0.283822 0.0187349
8750 1 0.139097 0.387539 0.0135649
14771 1 0.174824 0.318333 0.0163158
1103 1 0.213701 0.321689 0.00934131
21968 1 0.297715 0.270037 0.00608333
11443 1 0.317117 0.361309 0.00863841
21934 1 0.279679 0.298206 0.0124198
23715 1 0.251872 0.367398 0.01426
2322 1 0.379031 0.359848 0.00332593
10154 1 0.435017 0.298854 0.0163029
10018 1 0.371449 0.298044 0.00815339
13799 1 0.361274 0.298315 0.0157028
9985 1 0.499192 0.247856 0.0179225
14662 1 0.567739 0.319885 0.0142494
22942 1 0.529557 0.180366 0.0161439
14710 1 0.575933 0.242255 0.0175431
12901 1 0.576228 0.365786 0.0206536
23498 1 0.64443 0.282849 0.0151746
13637 1 0.6996 0.338048 0.0139599
21554 1 0.710013 0.364424 0.00733905
23561 1 0.72361 0.401387 0.0159018
14700 1 0.836679 0.303164 0.0218763
490 1 0.78611 0.346711 0.0129821
13629 1 0.96757 0.376778 0.0189905
21896 1 0.925988 0.296884 0.0174778
23926 1 0.934627 0.25508 0.0089416
21733 1 0.978285 0.334895 0.0106626
22185 1 0.887539 0.316615 0.0113115
1915 1 0.96204 0.229245 0.0152519
3287 1 0.0250486 0.400151 0.0138335
9173 1 0.0874553 0.441314 0.0161992
1974 1 0.944835 0.416663 0.0371497
12190 1 0.190281 0.410267 0.0177603
1073 1 0.223585 0.340949 0.0215628
1718 1 0.0725681 0.0327965 0.00146446
22083 1 0.299653 0.424062 0.013056
11434 1 0.199643 0.419064 0.00955816
23315 1 0.275145 0.438389 0.0188807
23728 1 0.223603 0.476798 0.0143596
13094 1 0.376811 0.454152 0.0171494
14422 1 0.449134 0.423334 0.0150712
12043 1 0.430553 0.361352 0.0203586
23126 1 0.384225 0.448335 0.0281618
1034 1 0.529854 0.46964 0.0164691
12172 1 0.572465 0.401403 0.00402637
22219 1 0.495275 0.354988 0.0150939
22771 1 0.969892 0.187448 0.038568
182 1 0.572119 0.405971 0.0139624
9686 1 0.627436 0.351607 0.00962201
1593 1 0.644415 0.394563 0.017221
14811 1 0.65956 0.432993 0.0115838
1038 1 0.613797 0.479485 0.0144345
590 1 0.685328 0.478114 0.016658
11607 1 0.790208 0.397644 0.0184102
13886 1 0.842176 0.425143 0.01321
3232 1 0.78206 0.464404 0.0161829
22959 1 0.854197 0.494048 0.015582
23361 1 0.855485 0.35721 0.0174968
9056 1 0.926084 0.387356 0.0134504
3262 1 0.979099 0.467885 0.0168265
13221 1 0.054825 0.380103 0.0196683
2267 1 0.895468 0.445252 0.0185415
23590 1 0.0841231 0.00999423 0.0233436
12309 1 0.995508 0.0455387 0.0319168
3189 1 0.844378 0.485408 0.0377265
2898 1 0.113119 0.0697737 0.02727
12734 1 0.140683 0.109781 0.017201
23427 1 0.183691 0.166174 0.0179595
10300 1 0.253456 0.0631153 0.0240937
13493 1 0.28817 0.123309 0.0201818
10800 1 0.172275 0.113341 0.0231772
12942 1 0.405333 0.0846886 0.0252144
23383 1 0.193439 0.276264 0.0395298
9914 1 0.365089 0.139132 0.035773
22143 1 0.839223 0.114951 0.0377267
9532 1 0.50007 0.0576718 0.0205649
14099 1 0.479035 0.0348328 0.0274163
620 1 0.653948 0.0979498 0.0195284
718 1 0.0361703 0.0411014 0.0376308
21140 1 0.740919 0.0413932 0.022098
21503 1 0.639115 0.0341553 0.0259148
13666 1 0.794461 0.0868247 0.0263498
13403 1 0.80593 0.0292353 0.0327873
2567 1 0.838234 0.138223 0.0223098
12533 1 0.813514 0.115973 0.0326746
12225 1 0.822804 0.0168347 0.0219421
2520 1 0.90904 0.0607732 0.0252869
12221 1 0.798204 0.435425 -0.000500862
2196 1 0.999398 0.0367408 0.0242066
2779 1 0.0849015 0.148792 0.0259265
21984 1 0.0256715 0.176681 0.0300597
14501 1 0.0774368 0.232273 0.0255674
13912 1 0.165985 0.191711 0.024572
2619 1 0.24479 0.180065 0.0226948
11226 1 0.166164 0.14821 0.0293188
298 1 0.154058 0.19382 0.0357222
836 1 0.302393 0.203992 0.0272902
21937 1 0.243262 0.128969 0.0280382
2169 1 0.226472 0.19543 0.0296961
11133 1 0.387038 0.155257 0.0297872
22606 1 0.378937 0.248045 0.0265634
14255 1 0.332271 0.246445 0.0327287
12167 1 0.451119 0.286514 0.0231551
3128 1 0.444099 0.190553 0.0259898
13304 1 0.524092 0.203519 0.0229102
1904 1 0.490342 0.131907 0.0223973
1190 1 0.445621 0.163041 0.033815
14517 1 0.57433 0.135161 0.0206478
10377 1 0.548434 0.157846 0.0291389
23461 1 0.542693 0.237893 0.0380238
22845 1 0.560638 0.0806082 0.0260084
23766 1 0.681368 0.280895 0.0260643
10941 1 0.61713 0.143856 0.0262295
21611 1 0.669089 0.214574 0.03055
2778 1 0.725487 0.177782 0.0157103
11606 1 0.733932 0.234405 0.0262515
272 1 0.682918 0.0952202 0.0265126
21185 1 0.869418 0.159526 0.0275405
11932 1 0.773245 0.23494 0.0182439
21090 1 0.963227 0.206752 0.0267448
11896 1 0.918707 0.191065 0.0210431
15473 1 0.912626 0.242508 0.032661
10949 1 0.0499415 0.317616 0.0232953
12212 1 -0.00221972 0.264134 0.0215761
13529 1 0.0186404 0.329147 0.0312568
9251 1 0.176299 0.239422 0.0195958
23268 1 0.295822 0.407254 0.0250514
2542 1 0.0872245 0.283186 0.0321156
11958 1 0.219679 0.257444 0.0241054
419 1 0.140411 0.291507 0.0247702
776 1 0.250739 0.285153 0.0183269
12779 1 0.301661 0.343628 0.0198198
12154 1 0.303366 0.259542 0.0232281
13478 1 0.362694 0.382821 0.0148812
22428 1 0.289346 0.330998 0.0270367
22965 1 0.373668 0.323352 0.0238192
13014 1 0.453605 0.302169 0.0310367
9738 1 0.347853 0.379678 0.030036
9733 1 0.534649 0.272173 0.0253915
23880 1 0.517531 0.314699 0.0200621
21327 1 0.609581 0.387412 0.0259808
2692 1 0.61919 0.310847 0.020584
1420 1 0.671455 0.380357 0.0308846
714 1 0.589668 0.23329 0.0305966
13226 1 0.700239 0.352222 0.0216762
12587 1 0.671299 0.426093 0.0232403
12363 1 0.696284 0.263113 0.0205901
23012 1 0.732044 0.360396 0.0277191
21319 1 0.816879 0.240296 0.0257344
9566 1 0.816656 0.371251 0.0254523
21572 1 0.698017 0.302644 0.0326529
3346 1 0.8838 0.383396 0.0292734
11720 1 0.915141 0.266644 0.0248969
392 1 0.962957 0.335541 0.0249306
1267 1 0.948297 0.318538 0.0307376
22115 1 0.889298 0.37045 0.0230084
14487 1 0.127785 0.363692 0.0201032
9803 1 0.0463042 0.388438 0.0270279
1774 1 0.0370756 0.492993 0.0220105
21386 1 0.0622752 0.466303 0.0291939
15224 1 0.868226 0.0300178 0.0383289
13873 1 0.183685 0.481827 0.02143
12919 1 0.196757 0.429426 0.025943
22727 1 0.120514 0.4174 0.0249128
22576 1 0.596226 0.429211 0.0397343
1337 1 0.289187 0.427811 0.0311311
12987 1 0.295598 0.337447 0.0346222
13774 1 0.635813 0.0229588 0.0140332
14545 1 0.429088 0.443703 0.0335258
1901 1 0.435621 0.446335 0.0219782
23250 1 0.371477 0.405034 0.0228601
2028 1 0.367397 0.398444 0.0349912
21160 1 0.899008 0.447189 0.0260793
9180 1 0.61602 0.448772 0.0316167
10564 1 0.507908 0.412057 0.0207712
13764 1 0.433238 0.382445 0.0269902
11646 1 0.537187 0.429416 0.0264971
484 1 0.586249 0.461938 0.0215305
12596 1 0.377252 0.463136 0.0398662
12126 1 0.743203 0.436339 0.0225771
2769 1 0.708903 0.444122 0.0300074
937 1 0.779999 0.435709 0.0280937
14045 1 0.0732403 0.1148 0.0400062
23906 1 0.826105 0.440779 0.02243
12177 1 0.864579 0.00644954 0.00728541
752 1 0.841797 0.435224 0.0319666
15194 1 0.427397 0.110583 0.0392947
1041 1 0.983778 0.431608 0.0239396
9847 1 0.961333 0.399072 0.0296414
13198 1 0.979431 0.474006 0.0301988
2149 1 0.0085152 0.121656 0.0355889
1547 1 0.486358 0.0337914 0.0145963
13626 1 0.0866985 0.115591 0.0328304
23298 1 0.86296 0.402642 0.0385011
11558 1 0.72693 0.466298 0.0397969
2828 1 0.222534 0.0204062 0.0382298
2112 1 0.177922 0.0672054 0.0333584
11702 1 0.977529 0.443404 0.00877369
22635 1 0.248682 0.0425118 0.0313214
23239 1 0.322793 0.106885 0.0275247
11394 1 0.292072 0.0955806 0.0341586
11712 1 0.557105 0.00606225 0.02467
12068 1 0.422662 0.0138808 0.0202071
12226 1 0.388322 0.190236 0.0016364
10803 1 0.70832 0.0395522 0.0158921
22514 1 0.780931 0.438844 0.0356436
13878 1 0.483667 0.0553148 0.0353562
14675 1 0.122171 0.0495664 0.0367694
21355 1 0.344637 0.020928 0.0147987
12296 1 0.636859 0.0898735 0.0317652
950 1 0.593063 0.0204828 0.0308833
12354 1 0.6149 0.0493629 0.0370379
21761 1 0.620151 0.111565 0.0406321
10628 1 0.0524282 0.177858 0.00120396
23714 1 0.733208 0.0356615 0.0286942
12699 1 0.727135 0.121891 0.032226
2373 1 0.70899 0.0575745 0.0366515
754 1 0.783855 0.0675523 0.0394319
13996 1 0.845441 0.19174 0.0374348
2191 1 0.670564 0.47093 0.035365
10884 1 0.764108 0.329534 0.0383171
2862 1 0.947438 0.1168 0.0303378
14291 1 0.950507 0.0772951 0.0370188
23841 1 0.878936 0.0915704 0.0314236
907 1 0.022759 0.27505 0.0276644
23382 1 0.989609 0.22407 0.0328343
11566 1 0.0640455 0.184412 0.0373296
462 1 0.404663 0.082853 0.0329257
11411 1 0.547677 0.0267915 0.0394666
13943 1 0.10433 0.20754 0.0304491
12132 1 0.160142 0.115297 0.0399435
3085 1 0.220774 0.139769 0.0356998
23431 1 0.286831 0.176543 0.0335127
13352 1 0.228809 0.222264 0.0367559
1522 1 0.679909 0.162044 0.0379897
13020 1 0.377495 0.210171 0.0382524
22997 1 0.293411 0.269324 0.0383469
9524 1 0.381916 0.319933 0.031252
23595 1 0.415981 0.237551 0.0330508
23966 1 0.473252 0.117708 0.0286149
9861 1 0.496341 0.221891 0.0311626
11949 1 0.52037 0.145249 0.0362127
1109 1 0.457978 0.181512 0.0404257
11104 1 0.55557 0.08846 0.0334991
22971 1 0.607733 0.165897 0.0352439
1384 1 0.571194 0.177974 0.0409726
12385 1 0.736367 0.207867 0.0324383
880 1 0.712746 0.232988 0.0385815
858 1 0.642578 0.240372 0.0366494
3264 1 0.767003 0.164189 0.0274097
14510 1 0.818003 0.200405 0.0322588
13028 1 0.76326 0.158262 0.0375195
22523 1 0.916802 0.159464 0.0347759
13673 1 0.873675 0.258179 0.0385138
12419 1 0.562431 0.14317 0.0010199
23055 1 0.0381327 0.291478 0.0366676
2656 1 0.0731379 0.36918 0.0348634
22078 1 0.184966 0.347838 0.0284852
15188 1 0.117564 0.253009 0.0381052
2127 1 0.172132 0.258566 0.0317908
14429 1 0.114134 0.355805 0.0278374
22663 1 0.144164 0.335644 0.0356502
12293 1 0.221059 0.338753 0.035293
23219 1 0.253432 0.273039 0.0315993
14372 1 0.464712 0.279434 0.0370343
12479 1 0.370759 0.288202 0.040108
1496 1 0.529944 0.297391 0.0327721
736 1 0.983753 0.0563117 0.00367411
9863 1 0.507467 0.341213 0.025614
21113 1 0.607402 0.303013 0.0264954
10637 1 0.560419 0.318568 0.0387412
2811 1 0.61439 0.313424 0.033208
13675 1 0.556149 0.376948 0.031374
1373 1 0.675525 0.311683 0.0392469
13613 1 0.722471 0.389266 0.0352512
12470 1 0.641304 0.375768 0.0374012
8912 1 0.797081 0.260312 0.037127
9351 1 0.891774 0.339618 0.0360193
14222 1 0.77007 0.296171 0.0276972
11942 1 0.804706 0.360979 0.0330249
23483 1 0.856452 0.298203 0.0308244
707 1 0.960086 0.285071 0.0379744
10636 1 0.984837 0.348941 0.0383861
14507 1 0.0145383 0.41832 0.0344488
12837 1 0.990629 0.444844 0.000201673
666 1 0.138735 0.409775 0.03863
13933 1 0.0756791 0.445133 0.03872
818 1 0.132852 0.413746 0.0321182
14564 1 0.205615 0.415427 0.0342248
21142 1 0.286869 0.406992 0.0376332
22272 1 0.173045 0.0248895 0.027138
11591 1 0.434187 0.36143 0.038048
12056 1 0.524998 0.472061 0.0348074
9561 1 0.47808 0.391297 0.0333096
12149 1 0.521126 0.404637 0.0384814
9947 1 0.453781 0.444803 0.0402628
2314 1 0.762178 0.500156 0.0328227
21474 1 0.129059 0.122721 0.000112951
10314 1 0.533982 0.10003 0.0404514
11654 1 0.64539 0.103238 0.00132022
22607 1 0.927527 0.00484478 0.0205285
831 1 0.792123 0.40552 0.0415576
13523 1 0.354647 0.368673 0.0413294
12211 1 0.259447 0.105951 0.001382
23910 1 0.665497 0.48076 0.000728785
1795 1 0.863495 0.500141 0.0554094
2750 1 0.974322 0.0977734 0.047927
15078 1 0.0555937 0.0761715 0.0520813
13690 1 0.983209 0.105346 0.0417765
14079 1 0.106824 0.107608 0.0467428
13530 1 0.293019 0.127454 0.0537773
3322 1 0.345251 0.0298931 0.0443989
12398 1 0.207872 0.0358318 0.0452687
12401 1 0.371196 0.0960766 0.0491962
14667 1 0.464116 0.0351914 0.0502531
1505 1 0.468599 0.113348 0.0459808
98 1 0.908531 0.309784 0.0427076
12312 1 0.413485 0.0617005 0.0447397
533 1 0.549856 0.0635536 0.048178
11709 1 0.751121 0.493808 0.0651282
3014 1 0.650431 0.148295 0.0829837
12657 1 0.124055 0.0094722 0.0776524
1610 1 0.610453 0.0365483 0.044205
14589 1 0.818894 0.468564 0.0494765
23465 1 0.618233 0.0804707 0.0512268
2556 1 0.953688 0.472754 0.0455074
12651 1 0.67839 0.0844931 0.0452916
14885 1 0.706494 0.0879223 0.0513183
2244 1 0.709807 0.262978 0.044712
11130 1 0.895327 0.494378 0.066465
1946 1 0.722779 0.380625 0.0424858
13350 1 0.844216 0.0486492 0.0444805
14784 1 0.745526 0.111077 0.0428097
23744 1 0.767951 0.0582284 0.0476062
13209 1 0.937025 0.0283309 0.0433414
11944 1 0.907805 0.0517581 0.0501173
10783 1 0.72127 0.287319 0.0836927
10309 1 0.954089 0.164844 0.047471
417 1 0.038594 0.148206 0.0446175
11641 1 0.0266724 0.18266 0.0504255
12775 1 0.00498526 0.327913 0.04452
3022 1 0.190037 0.118472 0.0482511
1396 1 0.189524 0.186483 0.0421326
599 1 0.33167 0.118135 0.0417963
9850 1 0.260477 0.165141 0.0484353
21886 1 0.25497 0.236336 0.0437454
11626 1 0.349059 0.176033 0.0514706
14058 1 0.393114 0.155888 0.0445245
11726 1 0.429878 0.196528 0.0490651
11731 1 0.522114 0.142567 0.0521141
2471 1 0.50426 0.176097 0.0457548
23326 1 0.504246 0.221493 0.0507626
22231 1 0.649565 0.197199 0.04318
732 1 0.588863 0.130766 0.0468611
10470 1 0.579746 0.223447 0.0465551
2902 1 0.648408 0.167829 0.0516629
904 1 0.681848 0.264913 0.0537815
283 1 0.703371 0.169967 0.0471319
22110 1 0.111338 0.180799 0.0426421
2224 1 0.829993 0.193775 0.0492984
294 1 0.488124 0.0392252 0.044121
13504 1 0.777694 0.138429 0.0491766
655 1 0.831095 0.139482 0.0438792
2290 1 0.772101 0.208518 0.04388
9961 1 0.906701 0.118859 0.0418445
13135 1 0.371473 0.45496 0.0592012
14986 1 0.888708 0.199597 0.0427703
21216 1 0.611532 0.0227447 0.0749673
10575 1 0.0478687 0.28459 0.0497411
2666 1 0.103999 0.215202 0.0482053
2795 1 0.152932 0.263136 0.0452516
14389 1 0.398678 0.240864 0.0829503
10712 1 0.217354 0.308555 0.0465463
11049 1 0.182346 0.263607 0.0832617
10840 1 0.929808 0.397615 0.0435619
21942 1 0.276883 0.23691 0.0507193
2351 1 0.343883 0.223157 0.0448085
2421 1 0.997693 0.00517738 0.0618574
11194 1 0.278991 0.374313 0.0476852
13097 1 0.337828 0.482463 0.0697674
2190 1 0.303419 0.29893 0.0461373
21898 1 0.408622 0.349755 0.0512509
13202 1 0.376562 0.282681 0.050017
335 1 0.423584 0.328113 0.0441693
10925 1 0.329756 0.503151 0.0781859
13070 1 0.467168 0.286507 0.0495199
10167 1 0.514039 0.364495 0.0487258
14987 1 0.456665 -0.00193689 0.0575437
22811 1 0.545735 0.350101 0.0537843
355 1 0.102523 0.0147994 0.0426918
13113 1 0.609855 0.329553 0.0513213
1830 1 0.552052 0.293209 0.0479661
9618 1 0.578998 0.371479 0.0435325
23429 1 0.660318 0.331453 0.0460425
2487 1 0.899559 0.376288 0.0788801
11788 1 0.283863 0.0184712 0.0485655
13577 1 0.690788 0.398702 0.0494708
2236 1 0.564382 0.478302 0.0835527
22963 1 0.820318 0.260413 0.0436344
21753 1 0.877659 0.356002 0.0496915
3357 1 0.955264 0.326057 0.0511418
2853 1 0.909101 0.297141 0.0553194
2345 1 0.887124 0.260197 0.0487088
14271 1 0.379139 0.0586644 0.0614996
9152 1 0.587713 0.48612 0.0461111
14032 1 0.0459016 0.370459 0.049993
14018 1 0.0694567 0.44405 0.0456133
9377 1 0.0213591 0.459052 0.0511052
2359 1 0.616602 0.281298 0.042388
12746 1 0.159604 0.341615 0.0425934
2531 1 0.121342 0.323098 0.048679
22750 1 0.193177 0.385282 0.0506427
14090 1 0.156497 0.434821 0.0444421
2035 1 0.215583 0.388738 0.0427436
9207 1 0.253299 0.452034 0.049457
11442 1 0.306878 0.435947 0.0439271
11372 1 0.368155 0.46299 0.0474988
13568 1 0.356658 0.394233 0.04975
13582 1 0.44294 0.4098 0.0472662
11823 1 0.524393 0.449593 0.046979
23582 1 0.945786 0.484802 0.0544614
2873 1 0.492544 0.407591 0.0551483
23912 1 0.602195 0.408544 0.0488451
23877 1 0.643295 0.455067 0.0527441
23201 1 0.700188 0.0206563 0.0553128
11693 1 0.235136 0.123037 0.0419162
1861 1 0.747814 0.448752 0.0468216
1047 1 0.694124 0.398175 0.0592926
23407 1 0.663575 0.443225 0.0434489
11910 1 0.804957 0.489829 0.0433144
1328 1 0.739228 0.323504 0.0473389
21599 1 0.788535 0.392587 0.0496102
22322 1 0.894621 0.430733 0.0521194
21933 1 0.721199 0.0344776 0.0685915
22742 1 0.680984 0.36142 0.0798712
13859 1 0.855568 0.431019 0.0450389
1130 1 0.9661 0.399626 0.0493158
14647 1 0.213444 0.00400325 0.0592935
11157 1 0.594649 -0.000848119 0.0509695
14154 1 0.0692408 0.0183937 0.0577728
11361 1 0.0704108 0.0762519 0.0624053
14585 1 0.969743 0.135632 0.054055
10864 1 0.182073 0.477328 0.0805333
9533 1 0.144275 0.0249863 0.049171
882 1 0.245005 0.0737247 0.0512837
2832 1 0.0820041 -0.00422711 0.0655426
13951 1 0.0309549 0.449062 0.0826849
1902 1 0.146844 0.335262 0.082955
10554 1 0.306881 0.0385882 0.0556312
21442 1 0.443823 0.126766 0.0523758
21030 1 0.399308 0.045017 0.0538704
12905 1 0.440381 0.095545 0.0598983
9933 1 0.508397 0.0848041 0.056202
3099 1 0.997726 0.494226 0.0701373
13586 1 0.55882 0.0554414 0.0618984
11790 1 0.587762 0.125537 0.0559449
11601 1 0.626191 -0.00165205 0.057731
14243 1 0.529758 0.0174497 0.0559489
12217 1 0.678238 0.478083 0.0728091
12273 1 0.707631 0.0620917 0.0614752
23406 1 0.0113306 0.425438 0.0422142
12423 1 0.757241 0.0889626 0.0568518
9315 1 0.856702 0.0268531 0.0570963
11326 1 0.832998 0.104883 0.0600392
13295 1 0.831065 0.0812008 0.0530094
12893 1 0.849106 0.0468786 0.0646421
612 1 0.773904 0.0232013 0.0594133
22724 1 0.912069 0.0832881 0.057816
15255 1 0.98678 0.0419596 0.0544857
11540 1 0.96954 0.247896 0.0518345
2948 1 0.0298572 0.222733 0.0599136
11080 1 0.981474 0.0918118 0.0597689
14889 1 0.0512967 0.147932 0.056683
12509 1 0.129654 0.146601 0.051478
13901 1 0.142036 0.0751853 0.0549537
12432 1 0.219796 0.167585 0.0541952
2638 1 0.133765 0.184573 0.0575162
22795 1 0.284171 0.0984469 0.0465966
22851 1 0.385206 0.188164 0.0576403
22747 1 0.308239 0.177162 0.0591207
10327 1 0.254178 0.230619 0.0566296
2934 1 0.475115 0.170436 0.0579071
21283 1 0.473324 0.128727 0.0647407
14565 1 0.472508 0.253973 0.0599634
2175 1 0.541701 0.132857 0.0612981
9457 1 0.555501 0.236447 0.0602523
13104 1 0.612131 0.143297 0.0663171
13117 1 0.663363 0.0917384 0.0576609
23972 1 0.579152 0.209578 0.0537279
13397 1 0.636791 0.185827 0.0592826
15113 1 0.726381 0.166166 0.0545356
337 1 0.775004 0.160995 0.060417
13645 1 0.824274 0.154985 0.0556501
10771 1 0.823071 0.146457 0.0651826
12938 1 0.889819 0.163987 0.0595272
21606 1 0.770053 0.23598 0.0642426
3314 1 0.887758 0.127889 0.0508039
884 1 0.966814 0.166214 0.060446
13560 1 0.974009 0.224944 0.0657635
9887 1 0.0839673 0.234661 0.055123
22654 1 0.149657 0.287514 0.0545558
14749 1 0.202271 0.223878 0.049555
1950 1 0.193363 0.394965 0.0573249
13220 1 0.237076 0.324164 0.0602032
12103 1 0.224931 0.313079 0.0539546
12421 1 0.319391 0.304545 0.0598309
15009 1 0.31369 0.317927 0.0531201
3048 1 0.326727 0.240294 0.0559906
11605 1 0.428549 0.237499 0.0542557
3010 1 0.39955 0.299029 0.0577182
21122 1 0.470305 0.329067 0.0554765
22976 1 0.552765 0.314056 0.0611662
9906 1 0.522777 0.271046 0.0549984
11836 1 0.643852 0.247328 0.0486292
12326 1 0.677284 0.338428 0.0544653
11571 1 0.608969 0.382407 0.056701
9115 1 0.710478 0.308649 0.0600391
48 1 0.59158 0.283153 0.0561993
1198 1 0.750585 0.359343 0.0561646
2038 1 0.744593 0.229625 0.0509693
2669 1 0.76669 0.256025 0.0578211
21546 1 0.843122 0.239788 0.0564817
2600 1 0.805789 0.291196 0.0503499
13685 1 0.84147 0.338224 0.0563064
9032 1 0.855966 0.273835 0.0624083
2395 1 0.910573 0.196561 0.0537684
918 1 0.992911 0.299788 0.0573366
142 1 0.0662231 0.322355 0.0568946
10523 1 0.937438 0.314142 0.0627096
1680 1 0.945692 0.242029 0.0595771
22456 1 0.101861 0.445918 0.0555033
14950 1 0.124873 0.365717 0.0545606
13954 1 0.00969982 0.386363 0.0557232
12671 1 0.0540031 0.441719 0.0666252
22860 1 0.114544 0.413817 0.0498648
23159 1 0.12301 0.424919 0.0617224
13075 1 0.188676 0.455138 0.0530644
22089 1 0.289672 0.147473 0.083868
12820 1 0.273354 0.387052 0.055022
14356 1 0.313612 0.452765 0.0536241
231 1 0.267859 0.454561 0.0591438
13976 1 0.411672 0.422563 0.0541498
12916 1 0.428769 0.389719 0.061001
15166 1 0.360341 0.365259 0.0572522
23955 1 0.349286 0.416912 0.0657684
21576 1 0.46223 0.477251 0.0584405
151 1 0.496422 0.357383 0.0635057
13065 1 0.556631 0.431744 0.0603599
10680 1 0.464943 0.446689 0.0645982
2712 1 0.641944 0.467542 0.0600448
3494 1 0.132973 0.489362 0.0498524
1340 1 0.537297 0.418435 0.0674899
14478 1 0.553281 0.449054 0.0532595
1753 1 0.970519 0.467652 0.07808
9448 1 0.631937 0.384676 0.0634453
23961 1 0.803131 0.433621 0.0565276
10179 1 0.7712 0.401543 0.0631098
9100 1 0.856058 0.397357 0.0604649
14414 1 0.935973 0.373233 0.0569262
13277 1 0.0273304 0.469942 0.0585053
2018 1 0.984406 0.370394 0.0618776
11126 1 0.0704178 0.0579789 0.0694168
12630 1 0.521828 0.495365 0.0640683
13565 1 0.037197 0.127236 0.0705052
13374 1 0.972098 0.36351 0.0822891
21051 1 0.254539 0.278593 0.0793489
12452 1 0.14107 0.0357343 0.0624284
9708 1 0.248057 0.040256 0.0710462
22902 1 0.197923 0.123276 0.0695052
11205 1 0.285343 0.0896735 0.0605029
22445 1 0.385086 0.043823 0.0823119
10664 1 0.416307 0.0743744 0.0674279
2440 1 0.375597 0.113573 0.0563293
906 1 0.335099 0.0780496 0.0685093
202 1 0.483179 0.0481772 0.0648536
23971 1 0.482256 0.0685037 0.0722992
203 1 0.540293 0.120035 0.0689212
14251 1 0.567487 0.0517545 0.0685899
13498 1 0.39636 0.49411 0.0647294
12646 1 0.646224 0.046015 0.0698461
12642 1 0.278561 0.468274 0.0741539
10981 1 0.762972 0.0924598 0.0652771
15389 1 0.777464 0.0754178 0.0716434
21652 1 0.695027 0.109885 0.0687327
15372 1 0.0316018 0.227218 0.0432469
13017 1 0.763625 0.000181665 0.0740471
10201 1 0.844182 0.147324 0.0731547
11612 1 0.884935 0.466506 0.0753969
15197 1 0.997371 0.0818691 0.0656954
2951 1 0.85721 0.0686839 0.0709982
12166 1 0.926545 0.0498351 0.0647487
14471 1 1.00552 0.011958 0.0691946
14498 1 0.13049 0.0931961 0.0671821
1484 1 0.0716355 0.153988 0.0636351
239 1 0.0515213 0.22953 0.0671235
11079 1 0.145288 0.124863 0.0610029
2203 1 0.221364 0.169582 0.0606519
10876 1 0.154342 0.186444 0.0668766
21247 1 0.213784 0.097444 0.0576575
22780 1 0.280332 0.128142 0.0667032
22692 1 0.30751 0.220484 0.0684903
22010 1 0.379798 0.129947 0.0642822
2165 1 0.347879 0.173143 0.070994
11595 1 0.428469 0.147781 0.0701172
14134 1 0.444051 0.215873 0.0656712
13037 1 0.520328 0.195073 0.0663882
21130 1 0.551142 0.127946 0.0765693
11914 1 0.591407 0.239907 0.0656414
1595 1 0.631693 0.0783477 0.0633488
23077 1 0.631752 0.245441 0.0735117
2721 1 0.67083 0.217126 0.0672282
14191 1 0.669605 0.292854 0.0676812
23314 1 0.685717 0.148618 0.0626601
3327 1 0.69926 0.227909 0.0609188
15431 1 0.735242 0.180067 0.0684658
23623 1 0.817616 0.222373 0.0689702
14928 1 0.887274 0.210159 0.0660414
22714 1 0.824477 0.17886 0.0785476
21481 1 0.936806 0.0917771 0.0712261
2218 1 0.906136 0.123808 0.0650508
13958 1 0.973332 0.148281 0.0672264
11018 1 0.107882 0.24567 0.0621488
9379 1 0.152133 0.32636 0.0611697
1280 1 0.0391776 0.304191 0.0705351
14124 1 0.0191972 0.297269 0.0632326
9564 1 0.0926677 0.311275 0.0656519
10926 1 0.189539 0.243626 0.0602143
22983 1 0.226119 0.202785 0.0678026
14997 1 0.266394 0.314216 0.0664748
14717 1 0.273298 0.239713 0.0630412
1758 1 0.292282 0.381259 0.0633681
13791 1 0.336796 0.328062 0.069071
22227 1 0.366062 0.242995 0.0630064
13544 1 0.379008 0.337778 0.0643804
9372 1 0.38314 0.252171 0.0700984
22002 1 0.504446 0.278497 0.0663573
2386 1 0.6374 0.308614 0.0622075
14135 1 0.43848 0.3098 0.0717345
14371 1 0.511199 0.341115 0.0706781
12038 1 0.4364 0.29917 0.0648971
2913 1 0.477369 0.248813 0.0723419
11582 1 0.586552 0.323547 0.0674433
2400 1 0.619612 0.325905 0.0750597
8940 1 0.558638 0.264215 0.0716822
11042 1 0.714156 0.416632 0.0762035