ITEM: TIMESTEP
6333270
ITEM: NUMBER OF ATOMS
24000
ITEM: BOX BOUNDS pp pp pp
-2.0834916256085023e-03 3.3247289394437317e+01
-2.0834916256085023e-03 3.3247289394437317e+01
-1.2009777397241805e+00 4.0014344857344156e+02
ITEM: ATOMS id type xs ys zs
23483 1 0.983962 0.102084 0.006315
23926 1 0.0794653 0.114637 0.00513963
21500 1 0.0370919 0.140015 0.0110456
2156 1 0.0563367 0.0450089 0.00871889
12419 1 0.0380114 0.0482521 0.00161772
196 1 0.166193 0.0453864 0.0065371
12211 1 0.227219 0.121398 0.00500923
22986 1 0.242869 0.0521299 0.00718693
13794 1 0.30631 0.0875065 0.00120227
11777 1 0.24534 0.469476 0.00637322
21934 1 0.395758 0.0461857 0.00175306
145 1 0.32893 0.0828795 0.00793939
10353 1 0.454622 0.102527 0.00334853
13304 1 0.535257 0.111505 0.00537551
21113 1 0.473747 0.0153849 0.00541877
22234 1 0.563217 0.0206498 0.00526937
9510 1 0.615336 0.084025 0.00491406
3004 1 0.699785 0.072511 0.00654558
21910 1 0.989033 0.259833 0.00112312
23422 1 0.86833 0.021894 0.00555469
23594 1 0.800148 0.0927737 0.00799898
479 1 0.77982 0.00495121 0.00833645
22923 1 0.895584 0.100963 0.000752494
22724 1 0.907071 0.083386 0.00710948
22115 1 0.968431 0.0184596 0.00457214
1774 1 0.384066 0.0103035 0.0235228
11400 1 0.0167724 0.154601 0.00260491
13825 1 0.0736394 0.253541 0.00287698
21111 1 0.015884 0.2084 0.00727143
21108 1 0.119536 0.176786 0.00161213
14547 1 0.0969822 0.186558 0.0102089
23976 1 0.151389 0.122291 0.00730939
313 1 0.150084 0.229134 0.00489368
1602 1 0.57806 0.162661 0.000734476
21743 1 0.227493 0.247586 0.00368902
13403 1 0.214448 0.185621 0.00844752
23105 1 0.287199 0.159538 0.00325691
21887 1 0.306151 0.221059 0.00698711
23498 1 0.424313 0.487393 0.0291581
14489 1 0.369653 0.134681 0.0021206
21386 1 0.434727 0.12341 0.00898736
13167 1 0.437289 0.193906 -1.33998e-05
2855 1 0.383672 0.198845 0.00892561
1752 1 0.401764 0.251076 0.00415571
21418 1 0.493468 0.189706 0.00513147
23141 1 0.543079 0.259503 0.00429491
9187 1 0.186736 0.489867 8.04528e-05
11064 1 0.622245 0.208522 0.012359
12265 1 0.57472 0.186659 0.0062974
2565 1 0.654054 0.163685 0.0057571
11836 1 0.743233 0.142106 0.00567761
490 1 0.710155 0.217574 0.00808686
22219 1 0.688311 0.132727 0.0113358
13752 1 0.811988 0.132014 0.00197103
21891 1 0.792081 0.19947 0.00562185
13336 1 0.88164 0.163963 0.00652879
12683 1 0.948577 0.181464 0.00937889
23068 1 0.938657 0.182204 0.00181719
21599 1 0.943101 0.242685 0.0064936
12980 1 0.547132 0.491834 0.0030421
1609 1 0.109466 0.334111 0.00544425
2267 1 0.00764332 0.320099 0.00584851
1724 1 0.054868 0.355614 0.000400496
9056 1 0.176232 0.293934 0.00872663
1301 1 0.18126 0.307471 0.00122609
2245 1 0.258142 0.487409 0.0325984
13338 1 0.257948 0.301637 0.00784099
532 1 0.387227 0.282813 0.00973128
23152 1 0.341227 0.295197 0.00322909
12294 1 0.424175 0.324853 0.00545152
14344 1 0.316612 0.00875011 0.00443719
9455 1 0.512815 0.343887 0.00435394
9746 1 0.592162 0.352567 0.00392711
1903 1 0.188607 0.0178938 0.0180835
20910 1 0.61174 0.276091 0.00826382
1756 1 0.654514 0.247619 0.00342472
22906 1 0.787316 0.278029 0.00133854
464 1 0.731882 0.286666 0.00679275
23012 1 0.772396 0.368518 0.00351427
2540 1 0.676553 0.346972 0.00362726
2029 1 0.716261 0.368449 0.00817773
23101 1 0.862344 0.26998 0.00786311
14355 1 0.874587 0.381994 0.00643022
15185 1 0.806963 0.310933 0.00779114
10992 1 0.925704 0.320516 0.00471512
22961 1 0.957023 0.372801 0.0108265
12177 1 0.916547 0.306841 0.011138
1014 1 0.806582 0.49699 0.00926276
9303 1 0.996042 0.400391 0.00441486
11825 1 0.0431593 0.426916 0.00924694
11153 1 0.0683618 0.497734 0.00469191
13203 1 0.227661 0.362357 0.00477543
14675 1 0.17238 0.452549 0.00591203
20760 1 0.225067 0.426211 0.000697374
11532 1 0.177148 0.372905 0.00998086
11780 1 0.263796 0.405437 0.00963107
2641 1 0.311353 0.436325 0.00313673
9458 1 0.205223 0.0614607 0.000642933
23174 1 0.333261 0.359143 0.00620929
9633 1 0.406432 0.413308 0.00473532
569 1 0.332105 0.433846 0.00969308
12363 1 0.552625 0.392177 0.0113354
1861 1 0.703194 0.434213 0.0400249
23268 1 0.478631 0.450259 0.00797703
1765 1 0.718777 0.434064 0.0330631
2205 1 0.854928 0.344867 -6.44205e-06
908 1 0.638159 0.381842 0.00948393
9863 1 0.548215 0.419634 0.00550382
11444 1 0.618975 0.429496 0.00269054
12891 1 0.642863 0.470936 0.00837481
14111 1 0.706822 0.499884 0.00103265
12451 1 0.699934 0.435665 0.00531605
13641 1 0.719085 0.497842 0.00846552
3074 1 0.768906 0.455172 0.00239694
1434 1 0.800167 0.410002 0.00774202
502 1 0.862732 0.469305 0.00629941
11975 1 0.555218 0.485757 0.00943075
23910 1 0.936334 0.443232 0.00751472
23361 1 0.834443 0.424354 0.00109915
14661 1 0.0250706 0.0680038 0.0167721
3157 1 0.0991275 0.0434544 0.0187604
13274 1 0.195069 0.0627415 0.0118348
12734 1 0.116803 0.0830186 0.012019
10296 1 0.12018 0.000351622 0.0115249
10216 1 0.283338 0.0420267 0.0123997
14569 1 0.233953 0.121911 0.0128609
10901 1 0.280521 0.0918679 0.0183874
23055 1 0.239233 0.135319 0.0233857
10950 1 0.398313 0.0478559 0.00800182
9173 1 0.45008 0.0782642 0.0145532
79 1 0.37954 0.0299138 0.0157953
13896 1 0.110177 0.0341296 0.0028922
9519 1 0.246506 0.48461 0.0152468
2191 1 0.517879 0.0615102 0.0102606
14082 1 0.841221 0.212797 0.00150787
14813 1 0.603999 0.0661687 0.0114311
15194 1 0.558182 0.0974804 0.0155763
1190 1 0.651543 0.100694 0.0158651
21140 1 0.583516 0.0324374 0.018804
11591 1 0.67377 0.0380933 0.0129955
22322 1 0.91789 0.112173 0.0403258
2151 1 0.744095 0.0706128 0.0131425
14589 1 0.735407 0.0599854 0.0198748
1038 1 0.802286 0.114254 0.0178617
13028 1 0.813644 0.0417067 0.0204231
14091 1 0.843494 0.0524159 0.012929
1794 1 0.920966 0.0599919 0.015267
11652 1 0.927552 0.392928 0.000839058
10840 1 0.961577 0.125737 0.0135823
2373 1 0.961971 0.0048373 0.0198575
13626 1 0.966167 0.0417459 0.0107614
9272 1 0.0769477 0.226731 0.015812
2567 1 0.0908171 0.140322 0.0165312
21993 1 0.0300289 0.137928 0.0199676
10845 1 0.177918 0.102659 0.019422
22374 1 0.163289 0.240067 0.0130995
9686 1 0.211399 0.255067 0.0192143
8750 1 0.162252 0.164055 0.0141994
2939 1 0.143724 0.205729 0.0197622
22505 1 0.245226 0.177557 0.0177381
2217 1 0.312293 0.169731 0.0123463
13308 1 0.338976 0.168772 0.0191549
2528 1 0.381747 0.114827 0.0140076
22967 1 0.427991 0.256372 0.0170897
12283 1 0.516715 0.158636 0.0123605
22686 1 0.564192 0.164086 0.0180662
3232 1 0.47753 0.146697 0.0194143
12318 1 0.442178 0.185223 0.0130805
1566 1 0.542845 0.229153 0.0112266
2831 1 0.500972 0.227001 0.0187503
714 1 0.596206 0.137884 0.0107421
22811 1 0.644449 0.171045 0.0169611
21572 1 0.774549 0.157383 0.0123853
14573 1 0.70551 0.204483 0.0147744
14968 1 0.724508 0.134138 0.0177608
22963 1 0.686705 0.164334 0.0230461
22425 1 0.833742 0.203346 0.0120526
12533 1 0.873521 0.134852 0.0137842
13859 1 0.850324 0.176978 0.0191456
1267 1 0.780745 0.205843 0.018235
9847 1 0.00246912 0.193919 0.0144521
1198 1 0.910177 0.230615 0.0152693
330 1 0.969882 0.253302 0.0194947
21185 1 0.0771544 0.270171 0.00910166
23250 1 0.0428774 0.351773 0.0111631
21857 1 0.0498763 0.299467 0.0175274
1370 1 0.121259 0.284188 0.0212892
2100 1 0.126027 0.304404 0.0138753
9837 1 0.227748 0.393407 0.0159655
173 1 0.23291 0.31207 0.0140842
14089 1 0.241902 0.238734 0.0121018
21909 1 0.187572 0.335755 0.0197962
23376 1 0.309489 0.282219 0.0125827
9125 1 0.353826 0.30147 0.0186029
23864 1 0.362766 0.222084 0.0149991
22250 1 0.301291 0.250646 0.0196408
9648 1 0.46 0.386885 0.0175265
13873 1 0.411092 0.334908 0.0145512
11873 1 0.545263 0.310115 0.00932523
10375 1 0.456893 0.266392 0.0102555
13997 1 0.475753 0.368071 0.0107812
11443 1 0.497623 0.305906 0.0145501
13173 1 0.572341 0.27588 0.0157889
9803 1 0.653721 0.241375 0.0200724
6 1 0.615953 0.342656 0.016615
21180 1 0.76669 0.253398 0.0126702
12670 1 0.674458 0.284102 0.0118392
12806 1 0.708683 0.292348 0.0169735
484 1 0.760175 0.3454 0.0140161
619 1 0.792402 0.31574 0.0187987
8912 1 0.838129 0.27163 0.0148625
21788 1 0.839105 0.366377 0.0143362
12069 1 0.898565 0.314886 0.0181436
1354 1 0.993565 0.287889 0.0123443
23667 1 0.978805 0.343844 0.0171353
2941 1 0.0400116 0.488271 0.0142876
22154 1 0.106085 0.484084 0.0110319
2897 1 0.0992077 0.414473 0.00562118
22772 1 0.0172356 0.415306 0.0160621
12173 1 0.107969 0.406504 0.0132439
11759 1 0.175619 0.459468 0.0129135
1515 1 0.115902 0.48863 0.0170261
10624 1 0.195207 0.453121 0.0208964
23915 1 0.304532 0.441918 0.0163541
9138 1 0.271598 0.334671 0.0188566
12763 1 0.322149 0.361742 0.0135013
2066 1 0.401176 0.402464 0.0116826
9340 1 0.360996 0.493114 0.0147861
21075 1 0.409431 0.479762 0.00946578
23315 1 0.371804 0.382341 0.0192853
12928 1 0.432795 0.464528 0.0164134
23496 1 0.982318 0.393628 0.0351237
22365 1 0.536005 0.369714 0.0182335
21486 1 0.515202 0.446683 0.0142846
9618 1 0.687109 0.377265 0.0166482
21327 1 0.600443 0.442527 0.0145125
22543 1 0.691445 0.465251 0.0173926
22412 1 0.448908 0.428007 0.0308219
21139 1 0.730585 0.423095 0.0125987
14463 1 0.746881 0.420077 0.0198474
12918 1 0.532414 0.46472 0.0355862
15259 1 0.815791 0.4871 0.0214136
13882 1 0.845001 0.405431 0.0200582
9517 1 0.877715 0.436964 0.0121034
21319 1 0.806775 0.436821 0.0141489
21769 1 0.877434 0.472361 0.0173421
13306 1 0.192026 0.188369 0.000241568
13052 1 0.964349 0.455507 0.0135077
1452 1 0.958424 0.460053 0.0217723
14890 1 0.930613 0.402549 0.0170842
11702 1 0.0351974 0.0694526 0.0233161
2779 1 0.105415 0.119038 0.0220496
13147 1 0.175959 0.0193495 0.0310621
3287 1 0.183187 0.0950915 0.026888
21132 1 0.155356 0.0190852 0.0240354
12154 1 0.299754 0.024525 0.0215472
419 1 0.232768 0.0442783 0.0233936
23126 1 0.294677 0.0755695 0.0262294
298 1 0.255219 0.0168041 0.0304623
11646 1 0.451215 0.019463 0.0202007
14904 1 0.38168 0.0716065 0.0273783
14501 1 0.34234 0.0348848 0.032203
9993 1 0.438902 0.0949383 0.021455
14973 1 0.482086 0.44468 0.00104087
13960 1 0.899302 0.396916 0.0324557
12479 1 0.468446 0.0596801 0.0267745
10564 1 0.509166 0.0755441 0.0191196
10470 1 0.522485 0.0815645 0.0308326
21761 1 0.614736 0.109633 0.0215917
23972 1 0.538656 0.0235374 0.0237671
2873 1 0.6062 0.0374383 0.0269608
127 1 0.656719 0.0244093 0.0201446
9963 1 0.928615 0.464866 0.037839
2044 1 0.682414 0.0429522 0.0309056
22514 1 0.754115 0.0483339 0.0270012
12358 1 0.699396 0.118485 0.0310867
12457 1 0.262823 0.497216 0.0415021
14 1 0.853509 0.448566 0.0395102
206 1 0.8285 0.0726854 0.0269244
22557 1 0.721852 0.21641 0.00106901
15473 1 0.904881 0.0321559 0.0239111
9333 1 0.967111 0.0991221 0.0286921
2547 1 0.956429 0.0884397 0.0208556
1526 1 0.974334 0.0161734 0.0264919
13878 1 0.897762 0.0379528 0.0308835
10611 1 0.0271077 0.223118 0.0227743
13673 1 0.040261 0.153943 0.0272274
11717 1 0.177282 0.174213 0.0249428
10223 1 0.112129 0.226368 0.0256936
12326 1 0.133169 0.162764 0.0306772
10307 1 0.259062 0.220715 0.0247673
13629 1 0.319069 0.166951 0.0254341
12673 1 0.314398 0.239239 0.0338851
14255 1 0.243382 0.192105 0.0303257
11434 1 0.363106 0.0856676 0.0207695
12498 1 0.40498 0.180016 0.0199169
21984 1 0.400219 0.145328 0.0269113
401 1 0.326738 0.125306 0.0310899
22965 1 0.421406 0.118063 0.0337907
3189 1 0.488065 0.142822 0.0262003
9670 1 0.544347 0.111148 0.0243696
22284 1 0.524038 0.221141 0.0251101
12987 1 0.610907 0.189459 0.0240126
15450 1 0.577996 0.258607 0.0216798
15455 1 0.551726 0.168064 0.0314247
22113 1 0.656062 0.207585 0.0320413
11720 1 0.746747 0.238912 0.0235914
10884 1 0.680565 0.0901646 0.0254457
13226 1 0.739689 0.194047 0.0289809
21503 1 0.779102 0.133322 0.030375
10941 1 0.753979 0.124838 0.0240057
13613 1 0.875162 0.0954491 0.0200681
14018 1 0.813165 0.180967 0.0261211
2926 1 0.947946 0.163435 0.0193077
2853 1 0.97043 0.18636 0.0266671
21160 1 0.90181 0.218888 0.0244443
11447 1 0.891472 0.12852 0.0272525
14348 1 0.975047 0.380286 0.0237428
29 1 0.0743824 0.372924 0.0192835
13077 1 0.0896355 0.329898 0.0254314
14655 1 0.0162587 0.252707 0.0288655
11653 1 0.170981 0.29326 0.0262837
2928 1 0.151559 0.379774 0.0275111
13761 1 0.249332 0.297527 0.0240681
21370 1 0.322957 0.263168 0.0270222
23794 1 0.265448 0.295397 0.0308416
21065 1 0.232171 0.377876 0.0250126
12620 1 0.313611 0.341798 0.0255258
11372 1 0.44461 0.214291 0.02562
14335 1 0.378694 0.246642 0.0230209
22078 1 0.411808 0.338201 0.0242438
23514 1 0.485353 0.304553 0.0208336
9020 1 0.388142 0.289057 0.0310372
12779 1 0.429366 0.361627 0.0305606
1666 1 0.504019 0.385685 0.0268411
692 1 0.558846 0.334441 0.0240452
12056 1 0.490446 0.297598 0.0278131
11104 1 0.642949 0.319772 0.0229683
407 1 0.633103 0.366243 0.0279779
12185 1 0.607304 0.255054 0.0277354
1904 1 0.7235 0.315429 0.0234913
12581 1 0.709139 0.353874 0.0307943
13070 1 0.780725 0.308765 0.0281161
12901 1 0.697097 0.263861 0.028013
22959 1 0.837317 0.25791 0.0212963
14372 1 0.85164 0.260858 0.0283365
2692 1 0.781797 0.372916 0.0321135
23171 1 0.857672 0.339905 0.0241615
22221 1 0.0202582 0.317718 0.0228249
13933 1 0.933721 0.256015 0.0320607
9995 1 0.854175 0.330523 0.0312017
2622 1 0.92351 0.299187 0.0250977
2344 1 0.965678 0.345569 0.029743
13044 1 0.132449 0.43419 0.0221853
9438 1 0.049106 0.460646 0.0212526
23896 1 0.0303855 0.416469 0.0264531
11396 1 0.202261 0.444543 0.0279771
13499 1 0.0969546 0.437437 0.0298883
10288 1 0.214383 0.372161 0.0319253
23476 1 0.823427 0.444477 0.0335411
14233 1 0.982913 0.0568481 0.0404508
14755 1 0.290946 0.434567 0.0228221
11589 1 0.247155 0.493466 0.0260585
10258 1 0.364497 0.440251 0.0343955
23132 1 0.357062 0.480567 0.0217846
21617 1 0.370125 0.414983 0.0273353
3395 1 0.429771 0.423952 0.0236993
804 1 0.503827 0.44537 0.0212941
12224 1 0.566565 0.398133 0.0327599
23661 1 0.514441 0.467681 0.0280948
11040 1 0.604395 0.398081 0.0205554
13433 1 0.589022 0.432554 0.0261308
10097 1 0.648539 0.469681 0.0232671
13299 1 0.644357 0.455352 0.0301769
11436 1 0.761945 0.451153 0.0278111
9816 1 0.69366 0.406816 0.0255985
10771 1 0.779728 0.370586 0.0235259
10231 1 0.645108 0.39848 0.0344671
1901 1 0.891862 0.484217 0.0314763
1420 1 0.830927 0.416008 0.0273185
1073 1 0.632524 0.306969 0.0387975
22454 1 0.975916 0.468825 0.0279735
2518 1 0.914384 0.42001 0.0265637
14278 1 0.119717 0.471861 0.0389833
23406 1 0.105709 0.0672999 0.028861
23465 1 0.0711643 0.064869 0.0386807
11930 1 0.229714 0.119964 0.0314901
757 1 0.227764 0.0326822 0.0379147
8773 1 0.155707 0.0931525 0.0353386
15372 1 0.211373 0.102221 0.0402212
9914 1 0.281856 0.0825346 0.0351476
13769 1 0.660439 0.379305 0.0402914
2542 1 0.372499 0.0275692 0.0388144
22083 1 0.440353 0.0323889 0.0338524
21067 1 0.354994 0.10027 0.0373979
15300 1 0.14462 0.495427 0.0263806
2190 1 0.511047 0.0302597 0.0372718
22048 1 0.273988 0.307654 0.000898302
2396 1 0.338288 0.344652 0.0327711
14170 1 0.640235 0.0258104 0.039238
12651 1 0.584782 0.0474622 0.0329587
904 1 0.664128 0.0811884 0.0366969
880 1 0.57882 0.103306 0.0363364
13198 1 0.745195 0.0993457 0.0373507
96 1 0.733749 0.0295964 0.0361706
9 1 0.796307 0.0615797 0.033404
15078 1 0.863168 0.0487503 0.0370594
14483 1 0.0936221 0.210227 0.0410893
22663 1 0.0735644 0.0139319 0.0323554
12624 1 0.911195 0.108178 0.0338182
23906 1 0.987693 0.122507 0.0366586
13555 1 0.985088 0.058448 0.0334336
2790 1 0.987378 0.480739 0.00215289
11540 1 0.0599719 0.107891 0.0334348
818 1 0.0248122 0.233688 0.0366679
14429 1 0.0619586 0.187105 0.0330373
22768 1 0.143189 0.251667 0.0364227
3028 1 0.190972 0.17745 0.0361729
11626 1 0.124023 0.147965 0.0385062
21896 1 0.27618 0.164861 0.0357428
14771 1 0.240275 0.240178 0.0375187
836 1 0.36804 0.183957 0.0380825
13954 1 0.443749 0.158653 0.040012
1278 1 0.369947 0.195376 0.0309575
23967 1 0.561851 0.499462 0.0216688
14644 1 0.512599 0.187266 0.0371911
2127 1 0.495371 0.108193 0.0367838
2769 1 0.457891 0.201307 0.0325896
655 1 0.607088 0.126619 0.0293216
12744 1 0.588451 0.181594 0.0364592
21095 1 0.656872 0.232953 0.040453
22976 1 0.66145 0.155199 0.0375878
12630 1 0.748837 0.188443 0.0356234
10742 1 0.908836 0.18778 0.030286
3346 1 0.842536 0.151261 0.0345825
2695 1 0.802326 0.221234 0.0398798
11571 1 0.798989 0.231194 0.0318367
10563 1 0.978702 0.186317 0.032651
23582 1 0.917745 0.185058 0.0371816
11442 1 0.0756382 0.298101 0.0363732
21141 1 0.0283812 0.357776 0.0407238
11433 1 0.0493974 0.355164 0.0303389
23512 1 0.198751 0.32703 0.0375809
2345 1 0.0808245 0.262428 0.0307311
10949 1 0.196569 0.250083 0.0309918
1642 1 0.148811 0.319268 0.0326905
13625 1 0.116235 0.335315 0.0409468
11970 1 0.302386 0.276665 0.0393516
22915 1 0.271577 0.344397 0.0376044
12064 1 0.397801 0.258531 0.037371
15166 1 0.458313 0.294396 0.0346959
428 1 0.351573 0.347863 0.0391351
1041 1 0.466463 0.328142 0.0412511
21239 1 0.569116 0.362008 0.0382917
13113 1 0.533972 0.284704 0.0390601
13976 1 0.522584 0.252444 0.0327872
11401 1 0.49985 0.371322 0.0343093
21342 1 0.714631 0.00209783 0.00234754
10327 1 0.60082 0.247729 0.0351272
9524 1 0.559219 0.317782 0.0322946
12565 1 0.643248 0.308583 0.0318721
943 1 0.729096 0.340633 0.0363492
11731 1 0.723319 0.263036 0.0342637
12425 1 0.731196 0.274665 0.0409825
1946 1 0.799027 0.299893 0.0364792
11823 1 0.848321 0.378988 0.0371188
22079 1 0.872561 0.25699 0.0356785
2175 1 0.826721 0.134306 0.040927
14507 1 0.332171 0.494871 0.0284827
14585 1 0.950498 0.257049 0.0397944
12124 1 0.996406 0.306916 0.0347466
12043 1 0.929584 0.345778 0.037403
23429 1 0.617736 0.455431 0.039186
1504 1 0.0825601 0.392047 0.0358556
22783 1 0.0235531 0.442616 0.0392471
9180 1 0.0299681 0.458357 0.0325024
21142 1 0.163509 0.462599 0.0333483
11121 1 0.150329 0.387674 0.0365815
13112 1 0.496953 0.407326 0.0390766
11142 1 0.771034 0.408313 0.0381243
23084 1 0.288778 0.422359 0.0307502
825 1 0.304095 0.424273 0.0398099
9947 1 0.230977 0.435041 0.0369133
12919 1 0.431506 0.466994 0.0370515
10588 1 0.411957 0.384202 0.0368565
9390 1 0.770546 0.497719 0.0155652
2811 1 0.359286 0.495698 0.00376804
22989 1 0.465536 0.24197 0.0403261
10154 1 0.447758 0.0814456 0.0416734
23479 1 0.981515 0.18336 0.0415885
14836 1 0.881372 0.210731 0.0414686
11715 1 0.762994 0.0732907 0.000730725
11507 1 0.0501842 0.440524 0.000567991
12372 1 0.480303 0.261625 8.18368e-05
13690 1 0.0519709 0.0592308 0.0467606
1610 1 0.977791 0.0558181 0.0521628
10367 1 0.146286 0.0286091 0.049931
13823 1 0.228931 0.0414374 0.0537628
11018 1 0.185136 0.0200584 0.0436456
23383 1 0.124854 0.0974031 0.0448923
11079 1 0.228111 0.125504 0.0468256
2351 1 0.317575 0.0740501 0.0494765
22932 1 0.255747 0.0294629 0.0466795
2656 1 0.36649 0.107468 0.0448657
12672 1 0.437438 0.115867 0.0485997
10554 1 0.45128 0.0104879 0.0490278
23077 1 0.518249 0.029675 0.050792
2401 1 0.915844 0.437446 0.0745715
12596 1 0.508491 0.0940403 0.0466263
2224 1 0.720891 0.177069 0.0421363
2794 1 0.610891 0.0871438 0.0490411
2244 1 0.659209 0.0163338 0.0464338
2828 1 0.629448 0.0962993 0.0423271
11942 1 0.770673 0.118067 0.0446163
23307 1 0.702351 0.127821 0.04736
1530 1 0.3039 0.035533 0.0695902
22555 1 0.730516 0.0430876 0.0497006
12274 1 0.669728 0.0702843 0.0787872
11684 1 0.81912 0.0435443 0.0477341
3357 1 0.864422 0.0929782 0.0458723
12259 1 0.530484 0.470082 0.0808303
22939 1 0.910108 0.0246506 0.0494587
12037 1 0.965779 0.105743 0.0461729
2600 1 0.894206 0.0240208 0.0419457
98 1 0.0355145 0.131037 0.0424111
21546 1 0.0339828 0.130852 0.0497345
14967 1 0.0380523 0.227804 0.0476092
10197 1 0.564442 0.49587 0.0670081
13294 1 0.155905 0.494384 0.0805155
11205 1 0.109911 0.166812 0.0474093
2028 1 0.180124 0.185174 0.0432187
1758 1 0.165025 0.236625 0.0481771
2173 1 0.168223 0.124435 0.0508083
3085 1 0.30435 0.155041 0.0480423
23595 1 0.219545 0.192968 0.0514639
22750 1 0.247853 0.240632 0.0460723
2035 1 0.272007 0.168727 0.0418656
12293 1 0.343081 0.177953 0.0535857
14623 1 0.396851 0.1868 0.0471873
2766 1 0.443554 0.254732 0.0482489
335 1 0.342802 0.227978 0.0437751
12126 1 0.812145 0.27683 0.0432346
9588 1 0.481168 0.181638 0.0468537
1589 1 0.503559 0.23491 0.0523292
11910 1 0.624796 0.16579 0.0446002
14700 1 0.56873 0.164041 0.0494701
22851 1 0.57402 0.223769 0.0422238
813 1 0.397146 0.486878 0.0811356
22390 1 0.67887 0.212626 0.0483473
9852 1 0.102374 0.00130832 0.0687775
2359 1 0.755689 0.225659 0.046648
22142 1 0.827194 0.185901 0.0468713
12273 1 0.77622 0.15086 0.0514655
1047 1 0.499561 0.00492655 0.0600823
22331 1 0.906496 0.15954 0.0462202
14611 1 0.93993 0.237953 0.0468577
9620 1 0.0548541 0.332583 0.0467862
752 1 0.0104058 0.37731 0.0502674
10926 1 0.103546 0.271949 0.0452165
11524 1 0.103661 0.361933 0.0520141
10980 1 0.0805282 0.278502 0.0527541
11922 1 0.186059 0.26958 0.0422356
22970 1 0.165732 0.328385 0.0469491
1346 1 0.243272 0.344523 0.0449057
21670 1 0.30786 0.304215 0.0454167
12834 1 0.301834 0.391166 0.0448649
2333 1 0.22669 0.293056 0.0513457
21184 1 0.429875 0.337443 0.047557
21886 1 0.391408 0.39148 0.0453546
14415 1 0.351141 0.368616 0.0520571
22512 1 0.391827 0.296949 0.0440538
21576 1 0.518915 0.268832 0.0458922
3010 1 0.583049 0.322453 0.0439736
12820 1 0.551313 0.305468 0.0529549
22638 1 0.499925 0.348904 0.0508077
12095 1 0.518117 0.379681 0.0450896
13645 1 0.720449 0.0645006 0.0430608
11264 1 0.615596 0.305171 0.0519933
23664 1 0.643392 0.376747 0.0473771
23243 1 0.600084 0.23357 0.0482906
12931 1 0.707407 0.348025 0.0434003
1328 1 0.656546 0.28502 0.0449108
23375 1 0.698506 0.346612 0.0520238
23425 1 0.28353 0.0730549 0.0419482
12848 1 0.856231 0.267219 0.0481213
9378 1 0.896307 0.328996 0.0486626
623 1 0.738682 0.293254 0.0482103
14564 1 0.966102 0.317501 0.0441964
1384 1 0.997761 0.284059 0.0504805
1254 1 0.0872706 0.422433 0.0437866
23129 1 0.0191528 0.470185 0.0454266
1876 1 0.0870036 0.46744 0.0504756
12811 1 0.189046 0.395558 0.0422914
11858 1 0.1681 0.487267 0.0445595
1884 1 0.163171 0.410596 0.0482155
13084 1 0.346042 0.43707 0.049868
9890 1 0.260345 0.438135 0.0466662
22655 1 0.274012 0.383744 0.0523256
966 1 0.455333 0.444964 0.0444901
11327 1 0.374495 0.464144 0.0419321
1572 1 0.402818 0.473414 0.0483219
13840 1 0.447859 0.411561 0.0505282
211 1 0.519059 0.466622 0.0499589
11656 1 0.538491 0.473863 0.0434733
2325 1 0.656744 0.450032 0.0449464
1488 1 0.585124 0.411321 0.0447196
12357 1 0.592912 0.471346 0.0492283
3523 1 0.744947 0.404557 0.0474285
13269 1 0.795732 0.484037 0.0495485
21086 1 0.653288 0.431353 0.052095
13675 1 0.880084 0.385578 0.0432318
13172 1 0.814692 0.334401 0.0495036
21606 1 0.86259 0.442578 0.0480317
272 1 0.778638 0.467855 0.0433281
1299 1 0.923858 0.475531 0.0442801
14950 1 0.931806 0.403789 0.0508379
11426 1 0.975651 0.470818 0.0505458
23472 1 0.966681 0.40042 0.0439305
2493 1 0.0811347 0.0541458 0.0534791
11278 1 0.00135026 0.0244159 0.0593147
15197 1 0.0867925 0.0918102 0.0605021
13025 1 0.0047424 0.126178 0.0560521
11935 1 0.176136 0.129168 0.0620941
13764 1 0.373478 0.0134825 0.0522876
14222 1 0.159982 0.0656401 0.0562857
2421 1 0.209318 0.0294288 0.0621361
11394 1 0.266684 0.121179 0.0531734
11595 1 0.286239 0.0236085 0.0629011
10574 1 0.25176 0.0772147 0.0591565
14781 1 0.338282 0.0773412 0.0584855
3022 1 0.306327 0.0254746 0.0545996
13117 1 0.641219 0.00933347 0.0619276
13948 1 0.374306 0.103576 0.0528193
12946 1 0.421669 0.060883 0.0604618
11937 1 0.713729 0.476543 0.0522054
21634 1 0.628967 0.45726 0.07821
22908 1 0.494323 0.0925505 0.0603652
2832 1 0.443558 0.0635681 0.0545267
13996 1 0.597045 0.122427 0.0557055
13202 1 0.57234 0.0412619 0.0550959
21652 1 0.605415 0.0835234 0.0621798
23912 1 0.649366 0.0380933 0.055164
10293 1 0.202734 0.322427 0.0792097
699 1 0.216364 0.00216263 0.068209
3558 1 0.681286 0.0948189 0.0605734
13698 1 0.780052 0.0701692 0.0555897
2714 1 0.702044 0.110497 0.0544873
374 1 0.867835 0.0691655 0.0548552
1814 1 0.877552 0.118661 0.0616036
337 1 0.00451853 0.120601 0.0638272
612 1 0.943338 0.065794 0.0580631
2948 1 0.915393 0.11774 0.0518651
14535 1 0.0531082 0.19546 0.0537402
414 1 0.109428 0.169822 0.0602994
2902 1 0.00640202 0.24383 0.0566288
1484 1 0.109945 0.127297 0.0542177
10575 1 0.146804 0.208183 0.0546817
13092 1 0.202071 0.142209 0.056303
2169 1 0.303992 0.223343 0.0574548
1753 1 0.218046 0.233185 0.0577503
13075 1 0.423045 0.132362 0.0576987
10636 1 0.313029 0.238469 0.0495375
712 1 0.425578 0.205915 0.0622482
1671 1 0.396012 0.250314 0.0568884
13705 1 0.351141 0.316585 0.0599845
21036 1 0.509375 0.111617 0.0530358
283 1 0.443424 0.181033 0.0530801
14478 1 0.505549 0.168441 0.0580521
22971 1 0.653855 0.163005 0.0515755
23807 1 0.599904 0.224055 0.0561444
11157 1 0.648157 0.168411 0.0595471
10994 1 0.662604 0.255413 0.0611642
14389 1 0.575012 0.15747 0.0607165
14135 1 0.723393 0.198992 0.0544481
15490 1 0.805353 0.230187 0.0535142
1830 1 0.803607 0.213914 0.0600481
15165 1 0.753536 0.141969 0.0581671
2808 1 0.830143 0.139573 0.0565103
10495 1 0.872992 0.229795 0.0581314
22707 1 0.964526 0.186132 0.0511123
21023 1 0.875927 0.196216 0.051692
23066 1 0.945432 0.245899 0.0607872
1176 1 0.936201 0.168832 0.0587146
2386 1 0.0337838 0.321125 0.0570473
2556 1 0.108492 0.246054 0.0591821
13241 1 0.0457222 0.27409 0.0622832
23298 1 0.152313 0.297835 0.0538005
23961 1 0.18036 0.295339 0.0636108
12708 1 0.22831 0.319835 0.0578106
15427 1 0.111633 0.340806 0.0591599
1109 1 0.297637 0.308045 0.0547853
14975 1 0.286654 0.370778 0.058529
2395 1 0.269942 0.277636 0.0622711
10977 1 0.360629 0.29438 0.0510698
9910 1 0.416328 0.369493 0.057175
10925 1 0.437107 0.296838 0.0544472
14506 1 0.492337 0.338892 0.0574456
11094 1 0.490627 0.256111 0.0591896
13544 1 0.553643 0.379546 0.0585907
21263 1 0.438959 0.295586 0.0623059
269 1 0.602085 0.300735 0.058424
15216 1 0.577591 0.387651 0.0516051
21988 1 0.684242 0.263314 0.0538842
9243 1 0.765847 0.303827 0.0548063
14240 1 0.704111 0.334629 0.0605761
12475 1 0.735468 0.241529 0.0595289
597 1 0.856971 0.305718 0.0545682
2296 1 0.86322 0.348461 0.0616204
14944 1 0.812971 0.291375 0.0609316
1319 1 0.802985 0.379534 0.0588851
23417 1 0.928102 0.2683 0.0528544
22535 1 0.964232 0.364211 0.0558209
11042 1 0.928259 0.306016 0.0591856
1617 1 0.0894496 0.450732 0.0606442
22225 1 0.0494471 0.409512 0.0562329
20934 1 0.173935 0.417082 0.0615823
11435 1 0.1417 0.431075 0.0556194
13791 1 0.197267 0.357318 0.0533283
3303 1 0.224162 0.432106 0.0567002
10679 1 0.207903 0.471382 0.0511612
22456 1 0.29829 0.457562 0.0559305
9461 1 0.856129 0.00413614 0.0651735
1486 1 0.452022 0.432809 0.0604879
12257 1 0.390783 0.437495 0.055226
12416 1 0.441074 0.492691 0.0546828
15048 1 0.498228 0.4192 0.0557011
14356 1 0.641443 0.378682 0.0569608
22775 1 0.578162 0.449071 0.0560094
10939 1 0.719315 0.47885 0.0622748
840 1 0.724086 0.408967 0.0586964
23146 1 0.780781 0.40929 0.0529628
22016 1 0.800291 0.452158 0.061078
22002 1 0.891241 0.305461 0.0425241
9115 1 0.870406 0.379167 0.0542579
23118 1 0.843157 0.460764 0.0542842
296 1 0.167745 0.155626 0.082324
2449 1 0.929637 0.445332 0.0827273
15011 1 0.907496 0.423705 0.0589122
12448 1 0.985637 0.447104 0.0561539
21548 1 0.014066 0.366062 0.0619374
9377 1 0.348739 0.198389 0.0824274
11080 1 0.0464287 0.0506566 0.0677142
12398 1 0.360308 0.00210891 0.0599469
2671 1 0.142624 0.0643918 0.0660533
2193 1 0.11396 0.0886233 0.0725357
11576 1 0.1922 0.0718188 0.0721195
12509 1 0.340435 0.083829 0.065128
13577 1 0.281489 0.103631 0.0716119
15255 1 0.248418 0.0996879 0.0654746
21908 1 0.364946 0.149114 0.0621775
10656 1 0.408674 0.0801857 0.0686545
22780 1 0.372373 0.000772029 0.0676646
9457 1 0.552974 0.0286379 0.0661442
9372 1 0.455964 0.024783 0.065418
22983 1 0.488259 0.0820563 0.0693705
22428 1 0.55236 0.117236 0.0660664
2376 1 0.0196489 0.497885 0.0600028
13397 1 0.668915 0.0487244 0.065932
23314 1 0.743614 0.0621944 0.0682991
14102 1 0.796355 0.121831 0.0699427
10964 1 0.171036 0.497716 0.0568335
21355 1 0.722901 0.032419 0.0571425
14229 1 0.792347 0.14785 0.0642173
15232 1 0.790882 0.0609046 0.0622292
21481 1 0.808318 0.0487615 0.0717264
1680 1 0.94827 0.090346 0.0694529
1340 1 0.863735 0.0842651 0.0671539
13189 1 0.954322 0.0342214 0.064306
1974 1 0.0817604 0.213647 0.066565
13958 1 0.0106122 0.143748 0.0700909
950 1 0.0263333 0.187401 0.0604901
9887 1 0.158759 0.205607 0.0640451
12671 1 0.087007 0.127802 0.0672857
10074 1 0.0627194 0.200525 0.0731352
1024 1 0.134127 0.174283 0.07097
10797 1 0.124268 0.268369 0.0671376
10022 1 0.22177 0.160892 0.069223
2054 1 0.361027 0.138706 0.0707625
21937 1 0.254954 0.213661 0.0646357
14498 1 0.26953 0.151093 0.0604299
666 1 0.300641 0.158206 0.0669898
22747 1 0.336837 0.225815 0.062846
9932 1 0.399433 0.184811 0.0683764
11641 1 0.343197 0.224047 0.0708484
10167 1 0.437596 0.125611 0.064594
12047 1 0.509482 0.183507 0.0638077
14090 1 0.474065 0.245791 0.0677529
23955 1 0.473821 0.164481 0.0708853
13849 1 0.56115 0.194546 0.0697923
13159 1 0.586066 0.238744 0.0638777
13065 1 0.633301 0.147465 0.0671484
3048 1 0.627937 0.220333 0.074113
21283 1 0.702668 0.145535 0.0698556
2138 1 0.667756 0.229263 0.0677282
2313 1 0.708736 0.171797 0.063633
23123 1 0.75279 0.221007 0.0675004
10719 1 0.703621 0.23621 0.0752601
9943 1 0.863031 0.154801 0.0695385
14191 1 0.869237 0.199969 0.0644651
12050 1 0.762239 0.178234 0.0731407
2472 1 0.994089 0.227068 0.0659029
23623 1 0.9372 0.172197 0.0655932
14837 1 0.904799 0.243109 0.0697035
937 1 0.0405425 0.286715 0.0697824
960 1 0.0839081 0.352501 0.0731051
23900 1 0.041005 0.367706 0.068073
9684 1 0.145681 0.344834 0.0678653
14397 1 0.210663 0.324025 0.071689
12742 1 0.189473 0.237013 0.0707689
23278 1 0.230565 0.35821 0.0645524
23219 1 0.273986 0.264526 0.0697984
2016 1 0.327195 0.35931 0.0655866
14124 1 0.28375 0.391671 0.0705052
10567 1 0.327462 0.327296 0.0711891
417 1 0.379531 0.29247 0.0662757
21325 1 0.410071 0.368731 0.0664318
23159 1 0.408928 0.362077 0.0733125
9760 1 0.536494 0.320506 0.0635093
1950 1 0.472495 0.322853 0.0679924
21997 1 0.486128 0.388118 0.0645794
22227 1 0.551968 0.353381 0.0715089
14371 1 0.626325 0.335056 0.0636958
2418 1 0.62768 0.294899 0.0694431
2889 1 0.711358 0.296782 0.0665022
12186 1 0.758251 0.362057 0.0645659
344 1 0.716341 0.369504 0.070422
14032 1 0.762653 0.289607 0.0722302
3113 1 0.813073 0.287382 0.0670547
22206 1 0.829439 0.221803 0.0698708
21166 1 0.882296 0.358924 0.0701811
13277 1 0.796212 0.365133 0.0717625
13291 1 0.891734 0.286765 0.064492