ITEM: TIMESTEP
6433269
ITEM: NUMBER OF ATOMS
24000
ITEM: BOX BOUNDS pp pp pp
-2.0834916256085023e-03 3.3247289394437317e+01
-2.0834916256085023e-03 3.3247289394437317e+01
-9.5623419112871488e-01 3.9989870502484621e+02
ITEM: ATOMS id type xs ys zs
23417 1 0.617685 0.00841059 0.0406313
11971 1 0.0418191 0.031319 0.00430502
10056 1 0.124098 0.120125 0.00317609
12720 1 0.179088 0.0745862 0.00267379
10800 1 0.130945 0.0484049 0.00697043
13769 1 0.276233 0.00728975 0.00219929
23052 1 0.298149 0.139916 0.00373952
11357 1 0.256173 0.0671959 0.0067006
15345 1 0.362506 0.162148 0.00799314
14465 1 0.373443 0.142494 0.00168042
8902 1 0.326588 0.0599592 0.00349244
11630 1 0.38073 0.0630702 0.0119012
22188 1 0.416561 0.103203 0.00632447
11047 1 0.539983 0.0659946 0.00663892
23062 1 0.581273 0.00166454 0.0090179
2064 1 0.494222 0.0073391 0.00228056
1602 1 0.663929 0.0220483 0.00922308
1103 1 0.580394 0.0813816 0.000514776
12672 1 0.643711 0.499904 0.029107
8773 1 0.535316 0.143372 0.000600428
22274 1 0.664718 0.0671364 0.00286884
10254 1 0.0434035 0.476274 0.00282674
11460 1 0.809668 0.0835729 0.00324808
11558 1 0.886272 0.0823014 0.00733761
10863 1 0.821478 0.0232723 0.00843189
10887 1 0.94972 0.136419 0.000824355
9395 1 0.977711 0.0710353 0.00489104
2926 1 0.600522 0.309748 0.0419525
2400 1 0.177949 0.0969926 0.0411572
12689 1 0.0562438 0.373759 0.0354076
164 1 0.0517919 0.126118 0.0065427
2237 1 0.995642 0.19653 0.00412152
14875 1 0.0404289 0.2232 0.00946365
21185 1 0.205988 0.161697 0.00309196
12811 1 0.954007 0.486723 0.0206934
2622 1 0.121462 0.220759 0.00487263
22680 1 0.560322 0.4263 0.000315273
22614 1 0.252186 0.145852 0.00931108
2983 1 0.255739 0.221802 0.00755781
2442 1 0.333315 0.218637 0.00439821
21345 1 0.411257 0.262501 0.00618596
2782 1 0.443899 0.184947 0.0101804
9459 1 0.505106 0.139173 0.00798849
8750 1 0.488566 0.22618 0.00609019
23721 1 0.441733 0.173453 0.00237438
13966 1 0.478683 0.257328 0.0134298
23100 1 0.585837 0.155166 0.00623226
21296 1 0.625103 0.149969 0.000140254
2263 1 0.582374 0.22865 0.00492501
10235 1 0.657103 0.213381 0.00699882
14491 1 0.672715 0.131955 0.00839966
23912 1 0.886137 0.00471102 0.0123317
2151 1 0.776735 0.147051 0.00878972
1160 1 0.729739 0.222093 0.00609543
21139 1 0.68486 0.203955 0.000396348
12265 1 0.875649 0.161448 0.00238314
23018 1 0.865937 0.153556 0.00943335
14067 1 0.797474 0.192326 0.00225258
21141 1 0.81304 0.219438 0.00815722
23174 1 0.946435 0.148092 0.00728171
13094 1 0.971394 0.268914 0.00552238
13274 1 0.622071 0.221826 0.0411152
2677 1 0.897909 0.225327 0.00583906
6 1 0.048928 0.39464 0.00242348
1073 1 0.0535146 0.271202 0.00300703
22783 1 0.104644 0.295303 0.0085194
23661 1 0.0114759 0.321374 0.00773731
21167 1 0.996082 0.337734 0.00153783
10408 1 0.117527 0.325337 0.00228237
1806 1 0.19385 0.279639 0.00526659
58 1 0.151723 0.364524 0.00691388
9255 1 0.322168 0.286674 0.00828314
494 1 0.27518 0.232325 0.000793878
13279 1 0.28634 0.326483 0.0033414
22983 1 0.359192 0.291441 0.00180445
9499 1 0.42918 0.333038 0.00943878
10288 1 0.133428 0.0125237 0.0314531
14662 1 0.384149 0.283934 0.0133423
23889 1 0.488304 0.309758 0.00657319
9800 1 0.536061 0.294843 0.0138237
10555 1 0.510114 0.360546 0.0117462
462 1 0.792231 0.0230908 0.0212601
12087 1 0.650917 0.370885 0.00369319
21968 1 0.575199 0.305279 0.00734393
11507 1 0.650165 0.294854 0.00872212
12702 1 0.687812 0.292759 0.0030247
12127 1 0.700317 0.359022 0.00876206
23255 1 0.834072 0.263978 0.00372164
9268 1 0.771429 0.312203 0.00442767
15185 1 0.806525 0.29575 0.0103422
404 1 0.847065 0.355723 0.0042456
23496 1 0.908753 0.29138 0.00119197
12891 1 0.892066 0.309747 0.00920618
22992 1 0.00551575 0.412697 0.00733216
1526 1 0.110029 0.0403603 0.0395821
77 1 0.0473526 0.489386 0.00861302
1188 1 0.184349 0.394142 0.000724461
14888 1 0.111171 0.431786 0.00490331
23995 1 0.178945 0.477782 0.00360729
22332 1 0.223922 0.40691 0.00611931
21793 1 0.317158 0.396833 0.00235689
13785 1 0.258039 0.485272 0.00726242
23979 1 0.434921 0.487798 0.00782647
904 1 0.336742 0.459833 0.00687683
23457 1 0.40872 0.414101 0.0059121
23243 1 0.103928 0.042935 0.022018
11241 1 0.492134 0.450168 0.00301169
12080 1 0.505339 0.381342 0.00522859
22635 1 0.527842 0.474865 0.00770213
13794 1 0.632475 0.450837 0.0112966
23135 1 0.582712 0.420772 0.00622055
12483 1 0.594224 0.48803 0.00359957
9863 1 0.688065 0.440212 0.00651235
13376 1 0.729159 0.369233 0.00208487
13559 1 0.70918 0.477784 0.00029867
11064 1 0.74448 0.446565 0.0117325
14190 1 0.909254 0.479409 0.0386024
9262 1 0.764386 0.435285 0.00379239
15371 1 0.780967 0.486526 0.0181233
2135 1 0.938126 0.373993 0.00500163
1366 1 0.944958 0.437011 0.00177628
23567 1 0.888554 0.470609 0.00805534
9877 1 0.73698 0.0229377 0.00237568
22374 1 0.0886795 0.104567 0.0132183
23926 1 0.0691076 0.0433632 0.0161142
15473 1 0.0702822 0.490415 0.0256743
3004 1 0.207212 0.0403785 0.0111277
453 1 0.170087 0.105315 0.0094387
2816 1 0.17076 0.137847 0.0156054
21146 1 0.204137 0.0863038 0.0212907
23146 1 0.151139 0.0616801 0.015883
13912 1 0.242522 0.103142 0.0149827
10046 1 0.276193 0.0866 0.021388
3189 1 0.26651 0.0247953 0.017368
12283 1 0.821464 0.473893 0.0339343
1719 1 0.421768 0.11973 0.0131814
11975 1 0.304458 0.0272627 0.011517
15239 1 0.342384 0.0853921 0.0178131
22284 1 0.418529 0.144006 0.0197442
13304 1 0.44288 0.013834 0.014705
298 1 0.473907 0.0700848 0.0105261
22277 1 0.43929 0.368178 0.00146546
1175 1 0.478719 0.082429 0.0171972
21757 1 0.613961 0.0854413 0.00898971
11922 1 0.529569 0.0214875 0.0143607
1901 1 0.620306 0.0287362 0.0140974
22887 1 0.601856 0.102897 0.0186525
11517 1 0.760021 0.129357 0.0149119
14967 1 0.733774 0.0683148 0.00751793
10218 1 0.775649 0.0444817 0.0149738
127 1 0.859236 0.0469636 0.0172242
14877 1 0.807226 0.106815 0.0206315
2224 1 0.727189 0.141504 0.00316173
1522 1 0.837285 0.0892611 0.0119394
11653 1 0.0339121 0.0594006 0.0102628
14739 1 0.935004 0.100538 0.019223
2942 1 0.93409 0.0827477 0.0121604
13431 1 -0.000298764 0.0585531 0.0168273
754 1 0.722713 0.483501 0.0313033
2795 1 0.100958 0.255153 0.0148599
12417 1 0.0805226 0.173515 0.0162527
1904 1 0.00634568 0.153412 0.0126665
23121 1 0.00831354 0.219597 0.0165985
9125 1 0.0344552 0.12835 0.0188251
14367 1 0.119267 0.176039 0.00992703
23315 1 0.161578 0.199933 0.0192147
13298 1 0.185819 0.211727 0.0114909
14222 1 0.325705 0.21169 0.0121121
428 1 0.255681 0.193432 0.0146861
23794 1 0.3198 0.108085 0.011867
2778 1 0.397903 0.199095 0.0151944
15032 1 0.333617 0.256614 0.0171123
1328 1 0.538821 0.203133 0.0108004
23667 1 0.493005 0.157526 0.0150561
1014 1 0.547075 0.105312 0.0137017
21993 1 0.521951 0.132184 0.0211869
10949 1 0.576025 0.181294 0.0169997
12806 1 0.619503 0.173186 0.0120142
14311 1 0.675699 0.153273 0.0177223
23955 1 0.696095 0.0899695 0.0135601
407 1 0.731854 0.230561 0.0185136
2450 1 0.722195 0.18735 0.0117083
22959 1 0.874475 0.230948 0.0126848
14008 1 0.856586 0.147478 0.0166762
11823 1 0.792649 0.209275 0.0140886
14011 1 0.923161 0.159629 0.0141546
1354 1 0.95669 0.238023 0.0114782
14355 1 0.890562 0.211436 0.0188871
21896 1 0.0306168 0.296899 0.0146765
236 1 0.0569616 0.349821 0.0212434
13216 1 0.0963893 0.35291 0.0152292
13410 1 0.0625072 0.274205 0.0201192
14348 1 0.164996 0.31511 0.0131212
12318 1 0.248184 0.336917 0.0167324
9406 1 0.235184 0.272103 0.0126898
1504 1 0.237307 0.246585 0.0190504
23665 1 0.31975 0.322451 0.0135385
23482 1 0.251399 0.337743 0.00874261
1109 1 0.356554 0.352693 0.00607949
14973 1 0.380789 0.381306 0.0127301
10777 1 0.369783 0.34481 0.0196622
10804 1 0.438141 0.33685 0.0154101
10009 1 0.510976 0.284608 0.0198357
2934 1 0.507476 0.397551 0.0184614
908 1 0.587225 0.350316 0.0159949
718 1 0.671886 0.317771 0.0158604
1434 1 0.600836 0.261122 0.0131166
13104 1 0.619528 0.367802 0.00987026
10314 1 0.609764 0.272631 0.0204836
23391 1 0.667416 0.231397 0.0155683
9519 1 0.726559 0.273253 0.0111871
12357 1 0.748929 0.342308 0.0141734
10780 1 0.785398 0.314781 0.0189483
9497 1 0.827338 0.371288 0.0134859
9906 1 0.899424 0.340984 0.0167127
11877 1 0.784025 0.379888 0.00801244
14018 1 0.845585 0.269564 0.0179644
12828 1 0.949064 0.27293 0.0172553
23406 1 0.957103 0.338205 0.0120069
15310 1 0.888355 0.389693 0.0100034
1341 1 0.00466429 0.477082 0.0140448
10327 1 0.0265006 0.396295 0.0151371
9889 1 0.0851588 0.38779 0.00860444
13249 1 0.0960521 0.445734 0.0140643
12425 1 0.767579 0.431686 0.0365623
9658 1 0.143235 0.483528 0.0107584
13014 1 0.174743 0.408504 0.0120152
2218 1 0.157001 0.465031 0.0173543
13077 1 0.312141 0.487769 0.020397
21069 1 0.220781 0.486992 0.0127939
2364 1 0.308285 0.397005 0.0106795
12297 1 0.252866 0.413271 0.0149104
22505 1 0.335688 0.410074 0.018191
2552 1 0.405799 0.482562 0.0133679
13378 1 0.427437 0.41455 0.0187902
9133 1 0.466841 0.43219 0.0112186
10080 1 0.897893 0.00901543 0.004449
13313 1 0.585292 0.417049 0.0192335
13786 1 0.552589 0.432226 0.013124
12385 1 0.65471 0.362999 0.0215326
2862 1 0.632476 0.478751 0.0171325
11944 1 0.305766 0.46547 0.0141959
11810 1 0.670346 0.415772 0.0369192
23770 1 0.678167 0.408683 0.0147794
23397 1 0.705263 0.461001 0.0200491
14489 1 0.801579 0.413437 0.0190914
23533 1 0.730742 0.376895 0.0202744
1572 1 0.829303 0.442759 0.010749
14335 1 0.881686 0.438553 0.0165699
13351 1 0.95323 0.407106 0.0178435
21930 1 0.951955 0.439464 0.0115307
2244 1 0.369621 0.00376761 0.0412903
14547 1 0.032134 0.0881864 0.0239598
11646 1 0.124671 0.124641 0.0203301
9138 1 0.0852152 0.0547578 0.0279854
1929 1 0.157169 0.0763016 0.0275004
193 1 0.19261 0.132305 0.0322073
1758 1 0.922698 0.39744 0.032373
11532 1 0.301081 0.0469163 0.0321936
10653 1 0.248987 0.0895532 0.0283651
13075 1 0.40815 0.0697816 0.0209212
14958 1 0.341795 0.0498978 0.0251973
1752 1 0.407034 0.0937629 0.027289
2874 1 0.438047 0.0237219 0.0293734
22543 1 0.498493 0.0834838 0.0304756
14497 1 0.473548 0.0619699 0.0240367
12282 1 0.42744 0.126273 0.0332782
9558 1 0.625672 0.03486 0.0202372
858 1 0.666632 0.0983305 0.0239641
12423 1 0.579565 0.122534 0.0268016
9985 1 0.540709 0.0369826 0.0201916
10268 1 0.612367 0.0477042 0.0274908
2518 1 0.589244 0.111594 0.0339769
623 1 0.728637 0.0657487 0.0209365
22412 1 0.701561 0.0486821 0.0284437
11743 1 0.86454 0.0683858 0.0241358
1765 1 0.794994 0.0657289 0.0268974
15166 1 0.422637 0.447301 0.0409425
13645 1 0.865105 0.099923 0.0297906
374 1 0.934445 0.027596 0.0236679
13350 1 0.942823 0.103881 0.0262308
210 1 0.0910207 0.113923 0.0413505
13873 1 0.00302393 0.0190999 0.0286272
11614 1 0.0663588 0.209932 0.0305711
13764 1 0.0943928 0.141558 0.0271931
11780 1 0.0989407 0.200255 0.022838
2029 1 0.207533 0.225746 0.0261195
10178 1 0.141839 0.200209 0.0302216
10004 1 0.172474 0.158295 0.0251023
14090 1 0.251773 0.163616 0.0275184
1164 1 0.240244 0.157121 0.0207622
23915 1 0.329031 0.123174 0.0257384
21556 1 0.331559 0.160621 0.0165313
2127 1 0.292999 0.217626 0.0232138
203 1 0.370922 0.204432 0.0229322
14517 1 0.467096 0.155721 0.0261776
14836 1 0.467351 0.216997 0.0197536
11434 1 0.547016 0.214515 0.0221412
2290 1 0.453928 0.238326 0.0260962
22169 1 0.649775 0.158445 0.0295909
14644 1 0.53532 0.186707 0.0281561
905 1 0.623951 0.183131 0.0222678
11715 1 0.742387 0.164245 0.0210536
14686 1 0.721267 0.134268 0.0278199
2695 1 0.764632 0.239607 0.0260729
9534 1 0.68834 0.20777 0.02446
15432 1 0.882128 0.147713 0.0237923
13555 1 0.806165 0.156776 0.0274946
22110 1 0.809588 0.199465 0.0209779
22602 1 0.846866 0.21535 0.0269211
14623 1 0.955054 0.167047 0.0208116
12432 1 0.00736814 0.16168 0.0272318
9684 1 0.929348 0.208589 0.0256596
11443 1 0.920167 0.151629 0.0309028
854 1 0.00642282 0.21527 0.0229607
22845 1 0.0539659 0.30026 0.0266652
9132 1 0.1293 0.345877 0.025394
624 1 0.16566 0.289869 0.0202626
22775 1 0.127243 0.263304 0.026148
23512 1 0.229182 0.317851 0.0249451
11836 1 0.305848 0.303867 0.0225049
22967 1 0.286528 0.267741 0.0291549
98 1 0.294891 0.377016 0.0239723
21721 1 0.269753 0.350272 0.0311604
335 1 0.405464 0.269977 0.0202762
11720 1 0.359515 0.280034 0.0261913
21580 1 0.355092 0.354017 0.0257757
13684 1 0.426498 0.325626 0.0278667
23804 1 0.569419 0.341437 0.0223116
23472 1 0.4515 0.331312 0.0218632
13112 1 0.523919 0.281279 0.0252741
1370 1 0.637856 0.320507 0.0272893
23716 1 0.602071 0.237571 0.0279416
13203 1 0.69889 0.298905 0.0214215
13084 1 0.723337 0.327618 0.0267311
2641 1 0.691526 0.264757 0.0294903
21599 1 0.904265 0.283492 0.0238403
22030 1 0.825694 0.303484 0.0246695
21758 1 0.858308 0.321665 0.0305825
14410 1 0.93235 0.311536 0.0316702
23864 1 0.928086 0.351909 0.0253476
10097 1 0.976005 0.277109 0.0265547
13803 1 0.00358475 0.362613 0.0295537
22961 1 0.973245 0.335495 0.0207391
14822 1 0.00181847 0.412083 0.0235582
23012 1 0.112393 0.419774 0.0214352
23642 1 0.0742541 0.397633 0.0277908
1193 1 0.0422518 0.462303 0.019804
10802 1 0.146916 0.461315 0.0253047
8912 1 0.171749 0.378073 0.0191878
2458 1 0.18912 0.384824 0.0268359
23967 1 0.199575 0.453505 0.0322095
23376 1 0.286357 0.493502 0.0277338
23068 1 0.236537 0.44141 0.0214817
9281 1 0.258542 0.429599 0.0287988
15141 1 0.356454 0.439686 0.0240234
12715 1 0.424581 0.467838 0.0270412
13886 1 0.408528 0.495408 0.0207503
2512 1 0.430198 0.396756 0.0256996
23761 1 0.352888 0.405416 0.0304375
655 1 0.981472 0.423997 0.0377648
22143 1 0.505809 0.363907 0.024756
540 1 0.501351 0.45578 0.0222601
12296 1 0.500829 0.430979 0.0302289
23607 1 0.567281 0.406197 0.0262073
11442 1 0.634044 0.407049 0.0307709
2794 1 0.632033 0.45196 0.0239422
14301 1 0.701063 0.4227 0.0266359
22221 1 0.77405 0.448252 0.0245709
12340 1 0.793048 0.373532 0.0248379
13413 1 0.762981 0.409437 0.030917
180 1 0.846705 0.45358 0.0233361
11731 1 0.860337 0.369385 0.0216505
10964 1 0.848211 0.414078 0.0291933
22272 1 0.981086 0.439299 0.0312099
14535 1 0.896608 0.485135 0.0294706
23841 1 0.924906 0.427064 0.0258792
21472 1 0.0482938 0.0122653 0.0358624
3167 1 0.0270389 0.0876382 0.0314384
12916 1 0.0133021 0.0690746 0.0377926
21142 1 0.118663 0.0982616 0.0345878
1515 1 0.192159 0.0667223 0.0344809
12120 1 0.230373 0.00260447 0.0330352
21406 1 0.722649 0.356527 0.0386906
1300 1 0.310256 0.147037 0.0388365
13840 1 0.324483 0.0725232 0.0378636
22663 1 0.243294 0.0546858 0.0394984
11256 1 0.381277 0.0269684 0.0349363
9916 1 0.40269 0.0801046 0.0395002
2561 1 0.351825 0.10698 0.0321884
1168 1 0.579995 0.0868656 0.0408598
2247 1 0.524929 0.142309 0.0348263
12834 1 0.545766 0.0361168 0.0343933
23448 1 0.461042 0.0320376 0.0362029
12779 1 0.489731 0.0909108 0.0404856
15210 1 0.646323 0.0572717 0.035905
11910 1 0.730025 0.0226546 0.0344495
508 1 0.744729 0.0656151 0.0401335
10231 1 0.828742 0.0355649 0.0319325
10377 1 0.817104 0.0419764 0.0387398
880 1 0.774086 0.0933067 0.0328278
9511 1 0.867639 0.103031 0.0355447
10936 1 0.950571 0.07631 0.0324246
22330 1 0.312976 0.468649 0.000144846
2493 1 0.911568 0.0307992 0.0357676
22908 1 0.930613 0.0954663 0.0397255
12264 1 0.984124 0.217087 0.0319573
13325 1 0.0260684 0.22284 0.0374448
14506 1 0.049288 0.150071 0.0355885
1225 1 0.106979 0.258836 0.0337409
15048 1 0.531343 0.0120652 0.0398756
13277 1 0.136781 0.187456 0.037041
14305 1 0.214221 0.16066 0.0387182
12167 1 0.232062 0.207131 0.0327436
756 1 0.319742 0.200626 0.0312615
22236 1 0.262535 0.105256 0.0345806
12918 1 0.24241 0.229145 0.0405333
21503 1 0.433902 0.238661 0.0407495
14507 1 0.38292 0.19615 0.0370052
562 1 0.389314 0.170794 0.0285829
823 1 0.536407 0.234207 0.0385091
23035 1 0.455855 0.165616 0.038377
22725 1 0.464338 0.195797 0.0324956
22193 1 0.404238 0.0212339 0.0055145
1756 1 0.613986 0.15167 0.0406561
10390 1 0.594663 0.190382 0.0348638
2855 1 0.676711 0.211184 0.0340856
11966 1 0.538026 0.152922 0.0411117
9 1 0.688927 0.127954 0.0357096
12416 1 0.690512 0.196695 0.0397381
1755 1 0.745858 0.186349 0.0328984
1422 1 0.785607 0.151229 0.0399657
1208 1 0.826074 0.172257 0.034501
15009 1 0.76007 0.225942 0.0392216
12172 1 0.525401 0.282737 0.000453674
12620 1 0.895744 0.184128 0.0395752
2214 1 0.972758 0.159132 0.0356143
22555 1 0.891678 0.232918 0.0331895
13114 1 0.954756 0.251693 0.0381582
11515 1 0.118817 0.332556 0.031314
22829 1 0.107756 0.312167 0.0378995
22331 1 0.020001 0.292414 0.0333422
21408 1 0.835735 0.386628 0.0370178
14827 1 0.474869 0.0844578 0.00138477
2547 1 0.174783 0.263454 0.0378986
12212 1 0.196296 0.28873 0.0303137
22115 1 0.197804 0.359717 0.0342616
2565 1 0.349466 0.3228 0.032468
9187 1 0.305683 0.333611 0.0398225
1867 1 0.242114 0.298626 0.0367226
12928 1 0.307125 0.248073 0.0362955
13625 1 0.395403 0.245184 0.0321786
21184 1 0.379588 0.291383 0.0374499
829 1 0.423916 0.411417 0.0334208
22031 1 0.439739 0.327073 0.0357647
330 1 0.496507 0.350496 0.0315201
2700 1 0.47641 0.273939 0.0322947
1871 1 0.532576 0.314687 0.0373494
23371 1 0.554557 0.247797 0.0324755
9766 1 0.577883 0.338628 0.0310794
21617 1 0.619536 0.365676 0.0378931
2054 1 0.624689 0.273256 0.0362651
12731 1 0.775003 0.327611 0.0326845
13779 1 0.689119 0.3596 0.0320706
12744 1 0.71119 0.28283 0.0364101
13717 1 0.849187 0.262852 0.0415701
13210 1 0.803116 0.251111 0.0324138
11788 1 0.874823 0.296513 0.0370662
23342 1 0.786062 0.301301 0.0383232
1643 1 0.983495 0.34334 0.0371503
21355 1 0.112641 0.475323 0.0384929
997 1 0.0551019 0.45968 0.0340818
21912 1 0.135684 0.392104 0.0362365
14645 1 0.129037 0.435933 0.0312212
2191 1 0.191597 0.455463 0.0387471
11461 1 0.34971 0.493728 0.0312989
22860 1 0.272668 0.487552 0.0352591
20953 1 0.274899 0.398854 0.0355784
15165 1 0.382696 0.37929 0.038328
2939 1 0.345871 0.464137 0.0376296
14781 1 0.440109 0.491036 0.0343525
2028 1 0.180394 -0.00323777 0.0239105
1183 1 0.572774 0.468618 0.0301884
11608 1 0.519468 0.487203 0.0365205
14230 1 0.490027 0.419957 0.0389272
12938 1 0.60902 0.466192 0.0361855
2016 1 0.551576 0.409444 0.0351825
12853 1 0.964904 0.491989 0.00630004
22057 1 0.692982 0.501227 0.0133709
2766 1 0.929666 0.011266 0.017484
760 1 0.0224962 0.00443272 0.0220325
2227 1 0.475491 0.496321 0.0160855
10142 1 0.909303 0.371304 0.0393365
2828 1 0.586641 0.344709 0.00160735
2366 1 0.00567472 0.293392 0.041543
22628 1 0.913371 -0.00113429 0.0289567
1642 1 0.0846104 0.254756 0.0416131
13374 1 0.0490225 0.43418 0.0417956
11958 1 0.985383 0.00689418 0.0116398
11656 1 0.358591 0.00240772 0.0171399
11828 1 0.699101 0.0120413 0.0152907
9762 1 0.176135 0.339226 0.0408739
9158 1 0.241812 0.388418 0.041558
9372 1 0.0264397 0.114772 0.0460109
2948 1 0.0638802 0.0486216 0.0465862
13172 1 0.87402 0.483836 0.0493443
14646 1 0.174443 0.0400821 0.046788
11018 1 0.111214 0.0988251 0.0479933
11760 1 0.69137 0.493015 0.0513703
15286 1 0.266878 0.0485512 0.0484622
21314 1 0.334406 0.0554688 0.0442052
11361 1 0.332364 0.126274 0.0479672
680 1 0.265831 0.114484 0.0435852
2169 1 0.976214 0.147546 0.042027
14861 1 0.383032 0.166726 0.0446921
9995 1 0.399634 0.0299811 0.0474613
22080 1 0.371813 0.0807369 0.0523194
11139 1 0.44703 0.0963922 0.0477642
11104 1 0.520362 0.0893534 0.0476761
884 1 0.457712 0.0234616 0.0429684
1248 1 0.627482 0.0784581 0.0468437
2750 1 0.559594 0.0261195 0.0466174
23383 1 0.678043 0.0381054 0.0434884
21036 1 0.759959 0.499329 0.0591706
13535 1 0.727318 0.0593389 0.0485008
15148 1 0.775234 0.13878 0.0465329
825 1 0.889548 0.0149579 0.0426909
23664 1 0.708236 0.44013 0.0429257
2275 1 0.842567 0.0956354 0.0508253
21409 1 0.850483 0.0968118 0.0435544
9032 1 0.794515 0.0462166 0.0454099
22036 1 0.948032 0.0859135 0.0462232
9750 1 0.977135 0.0275 0.0501859
15216 1 0.972878 0.024261 0.0413408
579 1 0.885686 0.0280261 0.0490823
2396 1 0.0684772 0.189066 0.0428844
9591 1 0.308624 0.484594 0.0556815
1926 1 0.245112 0.233301 0.0481591
966 1 0.10073 0.1748 0.04898
11007 1 0.202989 0.106144 0.0481994
14584 1 0.176135 0.181254 0.044625
11205 1 0.335145 0.266679 0.0504218
2325 1 0.267465 0.136543 0.0510701
11040 1 0.296987 0.186008 0.0448823
12290 1 0.403549 0.238893 0.0470206
1589 1 0.345614 0.18728 0.0510342
12823 1 0.428844 0.170358 0.0502795
13113 1 0.480042 0.171091 0.0451887
712 1 0.507711 0.144037 0.0527623
14229 1 0.563894 0.219272 0.0450783
1041 1 0.491874 0.243183 0.0495017
11937 1 0.576545 0.139536 0.0466277
14653 1 0.675817 0.222721 0.0528479
12293 1 0.637164 0.186129 0.0475938
9243 1 0.717738 0.27412 0.0501321
48 1 0.708567 0.195492 0.0458473
23278 1 0.691885 0.128997 0.0498859
9285 1 0.760374 0.206164 0.0514411
10340 1 0.69579 0.119794 0.0432433
22500 1 0.831191 0.186773 0.0441297
12448 1 0.819122 0.1671 0.0507259
13582 1 0.979305 0.177313 0.0486882
9947 1 0.908577 0.156625 0.0467611
23949 1 0.984354 0.231723 0.0434632
621 1 0.900932 0.234804 0.0459847
11976 1 0.0631069 0.241631 0.0484561
23590 1 0.0209647 0.312287 0.0472302
1753 1 0.102128 0.320488 0.0460038
12535 1 0.153504 0.256801 0.0468699
23548 1 0.190888 0.331998 0.0475005
11372 1 0.137943 0.322402 0.0518618
23690 1 0.244412 0.294298 0.044057
12274 1 0.255788 0.302546 0.0517517
1000 1 0.286284 0.351746 0.0480094
23971 1 0.401747 0.258257 0.0535463
9796 1 0.383709 0.32995 0.0451266
12648 1 0.334921 0.251572 0.0427764
8870 1 0.351467 0.361329 0.0513399
10192 1 0.436614 0.310386 0.0490231
23465 1 0.449352 0.362066 0.0416136
3321 1 0.550334 0.296076 0.046771
1933 1 0.495833 0.285921 0.0433286
12217 1 0.62392 0.274634 0.0484262
22044 1 0.442906 0.475206 0.0817321
22906 1 0.668987 0.342102 0.050821
21108 1 0.692935 0.271042 0.0428818
9770 1 0.739752 0.326439 0.045036
14473 1 0.655872 0.351844 0.0447276
22318 1 0.790666 0.244725 0.0456594
14655 1 0.842458 0.336973 0.0435739
14210 1 0.873373 0.297915 0.0488615
1711 1 0.912946 0.373992 0.0490419
13288 1 0.930595 0.298638 0.0429553
13026 1 0.960101 0.288346 0.0494618
344 1 0.0829121 0.496196 0.0459078
12893 1 0.0561426 0.403536 0.0479089
10981 1 0.561308 0.496298 0.0436422
845 1 0.671607 0.160823 0.0834644
23654 1 0.257552 0.467916 0.0427702
14569 1 0.128284 0.403449 0.0437597
14154 1 0.158035 0.482908 0.0500858
484 1 0.198817 0.419846 0.0470747
642 1 0.125474 0.40671 0.0519091
12497 1 0.469014 0.00557852 0.065326
15188 1 0.339169 0.411025 0.0439371
340 1 0.28404 0.428347 0.0501355
1440 1 0.659634 0.482283 0.0787964
645 1 0.431087 0.399467 0.047615
2215 1 0.338159 0.502107 0.0441357
14223 1 0.431719 0.489181 0.0478622
2440 1 0.504705 0.445341 0.0446035
14618 1 0.512205 0.360381 0.0504615
14058 1 0.538188 0.364488 0.0432394
23984 1 0.77947 0.00352342 0.0504739
13951 1 0.74303 0.462125 0.0803922
2585 1 0.566073 0.435813 0.0488805
23735 1 0.59732 0.366949 0.0490506
12830 1 0.597356 0.422132 0.0420871
478 1 0.782008 0.394137 0.043068
883 1 0.670559 0.424897 0.0486337
22189 1 0.779649 0.462649 0.0489032
3196 1 0.744198 0.383263 0.0501373
22613 1 0.864653 0.439129 0.0437932
21133 1 0.827866 0.399532 0.0502926
13495 1 0.958585 0.388708 0.076288
13823 1 0.979142 0.378792 0.0443346
9516 1 0.940973 0.447388 0.0461296
14470 1 0.00916528 0.496049 0.0491644
820 1 0.898404 0.416942 0.0540519
22939 1 0.964101 0.00747123 0.0613486
2173 1 0.0807966 0.0698901 0.0580255
10333 1 0.0368133 0.122767 0.0597778
9860 1 0.031224 0.0747575 0.0522633
9670 1 0.142359 0.0118902 0.0587103
10977 1 0.126477 0.118499 0.0558914
22638 1 0.201261 0.0515977 0.0528605
11942 1 0.181262 0.0920486 0.0612167
12600 1 0.102572 0.0300618 0.0520278
2298 1 0.972034 0.243186 0.0829436
13732 1 0.292093 0.045539 0.0545637
11491 1 0.274888 0.077616 0.0604792
11450 1 0.43163 0.0209154 0.053468
1278 1 0.362823 0.0565172 0.0578442
14227 1 0.440163 0.0561269 0.0608125
322 1 0.568466 0.00999139 0.061471
22642 1 0.471976 0.0848978 0.0558049
2714 1 0.973942 0.462232 0.0781808
13945 1 0.516206 0.0380311 0.0526536
13755 1 0.574072 0.0699655 0.0525726
14585 1 0.550825 0.0840486 0.0586618
14532 1 0.671492 0.0650679 0.0535293
21634 1 0.65093 0.0257996 0.0616649
9351 1 0.603875 0.00573638 0.0551897
11394 1 0.741556 0.0338357 0.0553567
23582 1 0.055942 0.357167 0.0418949
11825 1 0.726177 0.0835781 0.0599595
12651 1 0.77123 0.106228 0.0529932
13009 1 0.81373 0.330239 0.0807144
10398 1 0.797238 0.110009 0.060807
11488 1 0.906241 0.063319 0.0563091
12254 1 0.813527 0.0312389 0.0613143
12414 1 0.986083 0.076871 0.0576502
12475 1 0.942484 0.097997 0.0521012
732 1 0.883173 0.00772692 0.0611764
13103 1 0.100331 0.246182 0.054008
13685 1 0.0433228 0.151936 0.0536068
15061 1 0.0702442 0.190884 0.0585371
10134 1 0.110781 0.124125 0.0617446
9887 1 0.0181096 0.233785 0.0533106
15039 1 0.175937 0.169292 0.0512473
12358 1 0.158013 0.186597 0.0584338
23326 1 0.326582 0.133875 0.0565019
23429 1 0.256472 0.206418 0.0545626
23613 1 0.221836 0.137824 0.0564411
21283 1 0.292974 0.181756 0.0603305
2636 1 0.393731 0.198011 0.0574065
1319 1 0.411279 0.123217 0.0564222
10980 1 0.472415 0.146396 0.0601756
1553 1 0.546182 0.171191 0.0580156
1625 1 0.478938 0.220263 0.0557059
1009 1 0.437407 0.221672 0.0635403
11342 1 0.513242 0.254662 0.0607942
9378 1 0.625361 0.151218 0.053714
419 1 0.646431 0.168057 0.061156
369 1 0.576972 0.214731 0.0513896
1610 1 0.622856 0.0948096 0.0590601
12946 1 0.680546 0.261546 0.0607192
21095 1 0.71185 0.151424 0.0563859
14885 1 0.740038 0.181137 0.0627656
2190 1 0.834993 0.23547 0.0533256
13958 1 0.843325 0.201481 0.0603702
13209 1 0.789632 0.171244 0.0573205
9272 1 0.889306 0.146234 0.0561606
10179 1 0.917375 0.217557 0.0522664
21350 1 0.963506 0.120106 0.062529
1578 1 0.979194 0.175811 0.0569155
2472 1 0.921731 0.215682 0.0600374
486 1 0.0488386 0.31607 0.0535265
13911 1 0.0666731 0.264301 0.0606328
12708 1 0.986894 0.33288 0.0620718
3357 1 0.148749 0.269804 0.0590963
14145 1 0.188024 0.246998 0.0529588
21398 1 0.129492 0.352078 0.0580587
11287 1 0.213384 0.385827 0.0534196
13299 1 0.192752 0.399978 0.0632829
14498 1 0.291564 0.352899 0.0554006
11221 1 0.214221 0.333892 0.0585097
22839 1 0.320091 0.244526 0.0564848
3395 1 0.313558 0.283123 0.0634609
15292 1 0.453675 0.304285 0.055897
3287 1 0.397207 0.271547 0.0601345
3118 1 0.358998 0.329519 0.0573495
15072 1 0.447415 0.318118 0.062753
15398 1 0.548271 0.288284 0.0532751
12653 1 0.579693 0.353602 0.0553973
13752 1 0.597264 0.244464 0.0592064
1373 1 0.665314 0.34892 0.0612303
13901 1 0.639357 0.301934 0.0553234
23375 1 0.727313 0.328225 0.0558993
21811 1 0.750384 0.25296 0.0570442
1198 1 0.746227 0.314959 0.0635095
10563 1 0.795899 0.316779 0.0503378
13504 1 0.870085 0.343823 0.0548778
734 1 0.818705 0.290431 0.05889
2671 1 0.798621 0.380324 0.0581763
14771 1 0.910041 0.27937 0.0552136
22142 1 0.911209 0.305641 0.0616987
13799 1 0.968333 0.33014 0.0539462
1216 1 0.995597 0.265547 0.0583767
13264 1 0.0721834 0.456765 0.0539367
1012 1 0.0548182 0.384023 0.0566067
33 1 0.0940686 0.418479 0.0615921
14173 1 0.205798 0.478837 0.0635668
11759 1 0.170622 0.431361 0.0579521
11401 1 0.227425 0.465017 0.0545628
1416 1 0.255698 0.43234 0.0592235
1737 1 0.298092 0.365528 0.0622334
14422 1 0.368613 0.442595 0.0496205
10573 1 0.348926 0.410115 0.0572141
12980 1 0.434835 0.376511 0.0548924
3021 1 0.408919 0.39251 0.0617641
10925 1 0.396273 0.477241 0.0547341
671 1 0.540117 0.461164 0.0626869
12314 1 0.471476 0.449853 0.0525622
11157 1 0.520113 0.323094 0.0584252
477 1 0.464467 0.450877 0.0593568
13878 1 0.522338 0.416355 0.0556001
9524 1 0.588753 0.4161 0.0591202
1224 1 0.614285 0.437422 0.0529713
11702 1 0.595183 0.498561 0.0587355
160 1 0.679026 0.397914 0.0550368
2692 1 0.74576 0.434514 0.0553985
21470 1 0.711473 0.411113 0.0615343
2913 1 0.784997 0.428936 0.0632873
619 1 0.665993 0.466048 0.0582035
906 1 0.868653 0.401346 0.0608051
15103 1 0.82944 0.459845 0.0550002
3022 1 0.974074 0.496932 0.0560205
9035 1 0.985941 0.408248 0.0514294
15105 1 0.948519 0.379716 0.0583493
21838 1 0.0184302 0.437486 0.0592648
12850 1 0.922528 0.466572 0.0600932
13307 1 0.0252729 0.0604747 0.0646914
425 1 0.0439366 0.0682779 0.0712235
13149 1 0.110197 0.113334 0.0718953
12746 1 0.630623 0.49375 0.0451477
13948 1 0.124175 0.0623384 0.0660342
11693 1 0.175489 0.0677409 0.072559
11595 1 0.227507 0.0820003 0.0671204
23866 1 0.292232 0.0513791 0.0681676
15376 1 0.223156 0.00734975 0.0634019
14950 1 0.882234 0.403741 0.0792112
776 1 0.349737 0.484164 0.081962
9608 1 0.370938 0.0409247 0.0649283
11629 1 0.384166 0.134065 0.0631649
10603 1 0.382147 0.100364 0.070277
2496 1 0.441679 0.0451572 0.0703485
12874 1 0.552257 0.0388439 0.070601
11576 1 0.515765 0.0673413 0.0642584
12905 1 0.526105 0.114775 0.0699675
21702 1 0.609221 0.0768376 0.0662147
23484 1 0.631732 0.0403017 0.0735883
10676 1 0.684645 0.115336 0.0663804
3215 1 0.764991 0.0633971 0.0669061
12326 1 0.662551 0.00955862 0.0681205
14486 1 0.844536 0.0331212 0.0678749
181 1 0.866768 0.101915 0.0640476
2130 1 0.830525 0.111402 0.0696288
844 1 0.81498 0.371645 0.0739127
2424 1 0.92868 0.0649823 0.0663077
12695 1 0.913723 0.12863 0.0702983
2950 1 0.0648525 0.140425 0.0664368
9878 1 0.11655 0.221841 0.0644673
2922 1 0.0519744 0.208575 0.0708931
2776 1 0.214192 0.171411 0.0624585
2250 1 0.158391 0.134856 0.0669466
14390 1 0.198268 0.25043 0.0647306
860 1 0.155653 0.209024 0.0706652
3536 1 0.299055 0.128798 0.0653455
21365 1 0.241742 0.164455 0.0692618
14066 1 0.249195 0.257234 0.060115
15187 1 0.265634 0.225165 0.0667343
1336 1 0.258558 0.0943741 0.073029
10201 1 0.338663 0.171022 0.0712726
11156 1 0.358339 0.200981 0.0634071
23498 1 0.422422 0.176387 0.0685827
10715 1 0.446303 0.0987687 0.0665037
1946 1 0.500915 0.191318 0.0660786
13523 1 0.505256 0.234447 0.0721113
22750 1 0.58202 0.143786 0.0648327
1226 1 0.58138 0.200075 0.0717532
22016 1 0.610599 0.113838 0.0712944
12364 1 0.644959 0.173826 0.0686905
13795 1 0.736242 0.150927 0.0703019
899 1 0.712327 0.234527 0.0668973
23103 1 0.901493 0.171911 0.0651403
13595 1 0.809316 0.16609 0.0662751
2586 1 0.864768 0.182495 0.0718993
13738 1 0.783199 0.209815 0.0724981
23874 1 0.0109532 0.18837 0.0641696
751 1 0.995472 0.120323 0.0699453
1556 1 0.969589 0.200751 0.0706222
21763 1 0.0710268 0.35603 0.0699292
10524 1 0.0342233 0.290331 0.0670888
12820 1 0.090033 0.269504 0.0715019
15427 1 0.00716115 0.276803 0.0736704
3133 1 0.145181 0.306619 0.0662692
2138 1 0.22698 0.282791 0.0720631
12969 1 0.305105 0.225527 0.0740161
23362 1 0.232755 0.320569 0.0653316
1080 1 0.310609 0.321684 0.0718661
12787 1 0.421295 0.272945 0.0692516