ITEM: TIMESTEP
6633267
ITEM: NUMBER OF ATOMS
24000
ITEM: BOX BOUNDS pp pp pp
-2.0834916256085023e-03 3.3247289394437317e+01
-2.0834916256085023e-03 3.3247289394437317e+01
-1.0784352494757172e+00 4.0002090608319662e+02
ITEM: ATOMS id type xs ys zs
11702 1 0.985575 0.0218262 0.00587895
22250 1 0.576258 0.167766 0.00105138
12533 1 0.0730068 0.0478555 0.0028869
12580 1 0.206922 0.0350429 0.00721564
23022 1 0.158023 0.0802562 0.00568651
21732 1 0.00972478 0.394576 0.00195334
23062 1 0.347685 0.084695 0.00378651
1232 1 0.279408 0.0447927 0.00223745
15166 1 0.29419 0.0782233 0.0107459
10538 1 0.428458 0.0728219 0.00766403
23594 1 0.148083 -0.000183579 0.0307364
1599 1 0.4933 0.0480591 0.00326145
12836 1 0.604466 0.0477746 0.00118771
12931 1 0.397594 0.0224364 0.00200174
21440 1 0.659026 0.124415 0.00389975
1109 1 0.697524 0.0352882 0.00227365
11411 1 0.667685 0.0643109 0.00807996
1572 1 0.594037 0.0354462 0.0101477
3381 1 0.747615 0.097475 0.000361875
22986 1 0.735567 0.120847 0.00649198
22983 1 0.743825 0.0444748 0.0082614
22772 1 0.234828 0.00707334 0.0284569
9034 1 0.793388 0.00227097 0.00325252
13105 1 0.811604 0.0845519 0.0073639
11138 1 0.879666 0.0655422 0.00657446
23129 1 0.999148 0.449973 0.0340978
21909 1 0.0285051 0.191141 0.00786161
13081 1 0.0127872 0.0980105 0.00420357
10004 1 0.0950295 0.129528 0.00637551
22785 1 0.0751873 0.193941 0.00209664
534 1 0.0306172 0.262581 0.00589089
21644 1 0.172542 0.163791 0.00496331
22050 1 0.110724 0.209001 0.00759772
21283 1 0.340928 0.487314 0.0342504
2907 1 0.164829 0.244214 0.0031884
10992 1 0.335746 0.155063 0.00910807
9916 1 0.248605 0.120098 0.00380159
22735 1 0.241892 0.211571 0.00602291
9158 1 0.858947 0.000812076 0.0154499
15163 1 0.32292 0.207109 0.00459122
22036 1 0.409209 0.145867 0.00954472
12275 1 0.38501 0.165479 0.00174384
428 1 0.410454 0.213847 0.00657429
8820 1 0.481419 0.123342 0.00571417
1765 1 0.560788 0.196685 0.00773953
14403 1 0.358904 0.454139 0.00181276
11614 1 0.495394 0.202282 0.00403369
12372 1 0.6225 0.194875 0.00513063
21095 1 0.658984 0.00807019 0.0268896
1354 1 0.553542 0.0969938 0.00525445
1496 1 0.727291 0.185325 0.00308062
23427 1 0.879442 0.152355 0.00857315
2641 1 0.801648 0.186506 0.00805322
12657 1 0.888719 0.179326 0.00242521
10742 1 0.812649 0.132178 0.00149007
12340 1 0.931657 0.11192 0.00403138
13002 1 0.944933 0.19403 0.00731505
9948 1 0.982699 0.178073 0.00148261
10218 1 0.0937657 0.285738 0.00417956
15328 1 0.972342 0.327224 0.00432666
21937 1 0.627212 0.488908 0.0359905
12103 1 0.212358 0.285455 0.00757892
191 1 0.162119 0.344132 0.00666349
2028 1 0.124477 0.28633 0.0119242
21695 1 0.251417 0.359587 0.0104623
2404 1 0.293182 0.297438 0.00430437
21628 1 0.277224 0.272971 0.00992494
13336 1 0.215015 0.333885 0.00130862
10971 1 0.36659 0.278805 0.00384372
3117 1 0.348774 0.239665 0.00952801
10374 1 0.343568 0.347694 0.00810542
10364 1 0.373513 0.361089 0.00121004
23009 1 0.465174 0.279734 0.00336942
11218 1 0.537962 0.312641 0.00674883
641 1 0.50286 0.253779 0.00965105
9403 1 0.797039 0.204591 0.000362489
13515 1 0.564343 0.255353 0.00208003
11382 1 0.61532 0.275588 0.00903792
283 1 0.693679 0.00934943 0.0333337
14378 1 0.602309 0.336054 0.00421733
1046 1 0.646012 0.264613 0.00124748
13929 1 0.685239 0.227409 0.00795254
707 1 0.71935 0.297454 0.00415941
10080 1 0.791839 0.269176 0.0041577
15490 1 0.782327 0.353987 0.00421559
10202 1 0.873748 0.24443 0.00763792
3350 1 0.943833 0.245132 0.00226686
10411 1 0.93523 0.375318 -1.47045e-06
1254 1 0.955056 0.271989 0.00906632
12963 1 0.895235 0.337797 0.00736155
8911 1 0.857335 0.386679 0.00244077
14968 1 0.0843255 0.374986 0.00516761
1740 1 0.0508415 0.449336 0.0069527
22898 1 0.988664 0.390543 0.00861104
12064 1 0.160393 0.416441 0.0107249
11438 1 0.148693 0.429839 0.00426497
21299 1 0.244017 0.447802 0.0100307
15171 1 0.222291 0.414611 0.00407752
142 1 0.271817 0.486982 0.00361811
2314 1 0.289678 0.373776 0.00358706
12363 1 0.387668 0.472524 0.00754659
22992 1 0.450577 0.442128 0.00201392
864 1 0.418134 0.394334 0.00760329
21743 1 0.319066 0.431773 0.0070436
2193 1 0.927218 0.38229 0.0348541
21401 1 0.468557 0.362513 0.00363776
360 1 0.551922 0.477175 0.00471169
23152 1 0.497278 0.426517 0.00806884
22119 1 0.632972 0.45634 0.00410659
21580 1 0.565178 0.395044 0.00566571
11735 1 0.722625 0.409482 0.000627774
9390 1 0.747249 0.366908 0.0109452
9268 1 0.66288 0.388492 0.00652665
13279 1 0.709926 0.463469 0.00590801
23671 1 0.784397 0.441249 0.0054914
10577 1 0.833722 0.389666 0.00908477
12256 1 0.91592 0.417421 0.00673139
1925 1 0.861976 0.474593 0.00710867
9032 1 0.975016 0.467655 0.00499868
9141 1 0.0476998 0.0615581 0.00973936
8848 1 0.0983265 0.118582 0.0168016
13512 1 0.0152232 0.085939 0.016856
12303 1 0.0705528 0.0264352 0.0161636
14587 1 0.136525 0.0510528 0.0114076
11947 1 0.162942 0.0220283 0.0171736
11121 1 0.210469 0.0758774 0.0143196
702 1 0.229902 0.00441093 0.013065
21216 1 0.295667 0.0386774 0.0162973
23012 1 0.43243 0.10188 0.0144026
11958 1 0.36002 0.0754748 0.0128502
22628 1 0.376277 0.00813848 0.0170989
11921 1 0.383796 0.0758111 0.020283
12715 1 0.516408 0.117941 0.0114209
10219 1 0.576652 0.131046 0.0161843
15165 1 0.451874 0.0351305 0.0178261
379 1 0.210973 0.0621495 0.00123955
1609 1 0.634878 0.0713285 0.0146863
10302 1 0.546131 0.0437967 0.0151464
23471 1 0.711364 0.0166414 0.0141768
10056 1 0.709427 0.0989074 0.0136229
12775 1 0.756516 0.0596912 0.0220201
3264 1 0.790708 0.0576049 0.0130741
21891 1 0.840385 0.0897129 0.0194563
1085 1 0.38336 0.171037 0.0412066
21072 1 0.875748 0.0782282 0.0135226
13218 1 0.170681 0.489785 0.0147824
10771 1 0.955643 0.0461835 0.0109481
21576 1 0.96431 0.0235881 0.0177503
9592 1 0.930684 0.109958 0.0172374
12354 1 0.967591 0.131226 0.0115028
599 1 0.10114 0.213334 0.0132773
13612 1 0.0426397 0.13398 0.0118787
22287 1 0.050869 0.192881 0.0183417
15371 1 0.146526 0.134175 0.0121573
13568 1 0.223328 0.146673 0.0170391
23910 1 0.187598 0.210888 0.0117261
1569 1 0.141649 0.185255 0.019836
13928 1 0.22675 0.132296 0.0101485
11064 1 0.271457 0.20259 0.0122846
2721 1 0.339808 0.233278 0.0159429
12309 1 0.31835 0.133189 0.0160547
12585 1 0.383833 0.162244 0.0178226
20812 1 0.415896 0.23037 0.0134776
1164 1 0.480507 0.183009 0.0122813
2669 1 0.539157 0.201056 0.0179549
20953 1 0.480834 0.137996 0.0189039
13779 1 0.673266 0.151696 0.0110344
281 1 0.606323 0.113222 0.0090316
1225 1 0.601754 0.218011 0.013927
22020 1 0.650381 0.164479 0.0173456
716 1 0.629384 0.253222 0.020697
10859 1 0.74293 0.192531 0.0127481
9436 1 0.794898 0.205009 0.0182445
1143 1 0.758887 0.133828 0.0182935
21078 1 0.8279 0.233718 0.0130989
12217 1 0.872623 0.163252 0.0167495
13464 1 0.801558 0.134225 0.0129617
14749 1 0.861132 0.241683 0.0194013
23642 1 0.992737 0.223528 0.0133247
14784 1 0.907354 0.205734 0.0129052
3036 1 0.969477 0.174835 0.0184964
9316 1 0.0462221 0.303772 0.0107029
2769 1 0.0172321 0.276774 0.0185481
10367 1 0.0287637 0.364333 0.0155485
23661 1 0.102885 0.360689 0.0108976
23399 1 0.0979428 0.315877 0.0184444
622 1 0.187312 0.334598 0.0137404
15105 1 0.176678 0.344364 0.0206475
11630 1 0.163181 0.261938 0.0185708
23524 1 0.237631 0.275183 0.0161668
13825 1 0.26257 0.349234 0.0169791
11720 1 0.429781 0.293546 0.00934524
2249 1 0.336496 0.296348 0.0132948
2460 1 0.39984 0.272712 0.0195474
12154 1 0.415713 0.339054 0.0149635
9066 1 0.494216 0.354364 0.0115082
14227 1 0.482106 0.273514 0.0157683
10945 1 0.550629 0.274654 0.0204768
14836 1 0.573079 0.363974 0.0207631
908 1 0.501582 0.347363 0.0179443
21214 1 0.558464 0.302427 0.0141096
14348 1 0.623222 0.319294 0.0160054
9479 1 0.666722 0.258246 0.0147059
272 1 0.756711 0.266931 0.010725
10228 1 0.690898 0.314908 0.00968937
13167 1 0.700882 0.325428 0.0182779
21908 1 0.778064 0.306642 0.0175104
14234 1 0.81846 0.329581 0.0126503
13104 1 0.87642 0.338946 0.0196651
1193 1 0.902739 0.301562 0.0130349
12919 1 0.95137 0.337314 0.0189902
22839 1 0.967877 0.336256 0.0126508
11394 1 0.940403 0.252249 0.0185351
22381 1 0.0759629 0.447534 0.0265445
8947 1 0.0623555 0.435692 0.0135449
2008 1 0.0605329 0.415794 0.0198751
11608 1 0.211825 0.416493 0.0169414
344 1 0.130059 0.39507 0.0170086
13294 1 0.880324 0.435995 0.0360603
13047 1 0.303811 0.423257 0.0141581
15307 1 0.313947 0.434454 0.020135
9499 1 0.345189 0.342263 0.0184148
12976 1 0.38416 0.409292 0.0145037
13145 1 0.393405 0.463827 0.0198666
22963 1 0.461838 0.413655 0.0142926
2811 1 0.543377 0.41925 0.0161314
14850 1 0.933979 0.494187 0.0315915
2127 1 0.545992 0.480779 0.0122764
476 1 0.593192 0.369104 0.0117511
21940 1 0.627178 0.441095 0.0177624
22747 1 0.671269 0.383238 0.0142862
22680 1 0.622896 0.47461 0.0103104
23066 1 0.74926 0.000739222 0.0366444
13135 1 0.785018 0.47554 0.0183314
1183 1 0.710199 0.463754 0.0123556
22720 1 0.731636 0.412815 0.0181848
21406 1 0.685377 0.497376 0.0199492
10900 1 0.786435 0.444819 0.0122323
23121 1 0.810881 0.385899 0.0170265
11156 1 0.903241 0.396794 0.0144848
264 1 0.943833 0.422415 0.0203011
23744 1 0.973722 0.435361 0.0143729
14061 1 0.867729 0.471316 0.0147072
1643 1 0.0197126 0.0447387 0.0229068
10257 1 0.0189411 0.104495 0.0276426
9186 1 0.00540342 0.0353128 0.0326981
2325 1 0.244518 0.0670767 0.022047
12600 1 0.184477 0.0721974 0.0271532
1370 1 0.847556 0.500396 0.0397973
23664 1 0.101287 0.0538556 0.0220765
12296 1 0.309018 0.0558983 0.0254759
9263 1 0.0693955 -0.00222682 0.0410762
21075 1 0.26522 0.0797936 0.0296331
21969 1 0.805993 0.457047 0.0351873
15255 1 0.36917 0.00877901 0.0241111
12830 1 0.353107 0.084594 0.0305198
12074 1 0.51574 0.0625909 0.0219037
12225 1 0.429151 0.0618735 0.0259839
23590 1 0.498454 0.109121 0.0297627
1566 1 0.603202 0.0747856 0.0228395
11966 1 0.579583 0.0671545 0.0286981
15368 1 0.621381 0.128727 0.0294991
22642 1 0.68801 0.0439798 0.020152
1120 1 0.678148 0.0743875 0.0282067
10495 1 0.751602 0.0162276 0.0270046
9340 1 0.892914 0.0306067 0.0286917
12853 1 0.830282 0.0764389 0.026403
1942 1 0.913963 0.0429974 0.0224563
13390 1 0.950154 0.089538 0.0303137
2273 1 0.97784 0.11696 0.0229298
15292 1 0.0693582 0.131377 0.0232344
21912 1 0.0961072 0.225662 0.0231329
9990 1 0.069188 0.184567 0.0293781
9877 1 0.19683 0.222591 0.0248924
14079 1 0.142963 0.14884 0.0256187
13533 1 0.170054 0.0899884 0.019948
14517 1 0.220869 0.149478 0.0248225
3022 1 0.292475 0.157419 0.0283381
13413 1 0.309413 0.119257 0.0219599
3509 1 0.276278 0.229832 0.0281113
14583 1 0.267101 0.208987 0.0213639
1014 1 0.383149 0.139735 0.0239449
15450 1 0.3526 0.229214 0.0237577
11930 1 0.440564 0.203943 0.0202108
1267 1 0.435216 0.228781 0.0270721
13902 1 0.523111 0.200955 0.0244705
10046 1 0.53929 0.130525 0.0248706
2766 1 0.451538 0.151603 0.0258273
1422 1 0.556613 0.186029 0.0326347
14827 1 0.609132 0.179856 0.0229492
9626 1 0.58575 0.242298 0.0269278
1234 1 0.682658 0.201254 0.0256802
13378 1 0.754458 0.128087 0.0258015
14758 1 0.690458 0.122191 0.0223797
1537 1 0.702267 0.218274 0.0194012
12691 1 0.768829 0.202534 0.0253327
14410 1 0.8326 0.154738 0.023192
11977 1 0.851999 0.224012 0.0263817
9044 1 0.900897 0.118293 0.0250798
13014 1 0.799698 0.159885 0.0309435
14233 1 0.912115 0.194175 0.0227304
1755 1 1.01497 0.210522 0.023113
21758 1 0.919317 0.24321 0.0295582
10564 1 0.970183 0.16369 0.0281506
202 1 0.00502233 0.24591 0.0295076
22759 1 0.0535837 0.304034 0.0245278
11433 1 0.0728181 0.376215 0.0308384
13760 1 0.0120584 0.375018 0.0242718
2695 1 0.136469 0.233206 0.029489
14928 1 0.126447 0.286041 0.0253227
23317 1 0.194741 0.365293 0.0276407
468 1 0.287811 0.283923 0.0219717
23075 1 0.259938 0.366256 0.022996
10183 1 0.221662 0.299195 0.025273
10636 1 0.276151 0.357285 0.0290187
22236 1 0.349703 0.265754 0.0317893
23457 1 0.33272 0.393837 0.0243643
1276 1 0.355214 0.32009 0.0257394
11896 1 0.414468 0.381289 0.0276382
10811 1 0.473679 0.28317 0.0229824
13911 1 0.504465 0.25758 0.0293687
14361 1 0.493643 0.362082 0.0255788
12997 1 0.667226 0.379503 0.0208404
22863 1 0.671568 0.264002 0.0303735
1794 1 0.569918 0.331016 0.0281697
21769 1 0.642661 0.311915 0.0236161
23966 1 0.631691 0.329975 0.0320618
23240 1 0.800045 0.274074 0.0227272
23188 1 0.716433 0.274588 0.0235531
23667 1 0.753029 0.353049 0.0233729
22970 1 0.691698 0.356431 0.0279718
313 1 0.802099 0.266997 0.02942
559 1 0.880949 0.302376 0.0259488
21488 1 0.829478 0.336419 0.033044
662 1 0.822739 0.362091 0.0260604
21418 1 0.765073 0.385065 0.0306932
14470 1 0.962979 0.291736 0.0244898
23558 1 0.0124097 0.482951 0.0203095
14947 1 0.0982692 0.378582 0.0244886
23216 1 0.00176759 0.447826 0.0267736
11398 1 0.171016 0.447483 0.0224682
12910 1 0.471386 0.216707 0.0408229
14179 1 0.143194 0.432958 0.0299989
21793 1 0.248514 0.444835 0.0241996
11139 1 0.294067 0.426539 0.0298302
23976 1 0.410217 0.37708 0.0210659
1188 1 0.369379 0.46449 0.0275003
14210 1 0.463906 0.434668 0.021365
13423 1 0.547741 0.46099 0.0236227
9511 1 0.442653 0.461327 0.0295774
15297 1 0.514453 0.415183 0.0311326
13084 1 0.571847 0.477804 0.0295413
9800 1 0.621892 0.488791 0.0238027
14453 1 0.60337 0.399208 0.0270739
10252 1 0.739663 0.454044 0.0308064
22768 1 0.69548 0.430706 0.0250667
22375 1 0.811794 0.508937 0.0276832
9899 1 0.540985 0.423692 0.000102105
12581 1 0.782999 0.439115 0.0243742
9292 1 0.837622 0.416725 0.0306675
11695 1 0.85831 0.430299 0.0232885
21886 1 0.93696 0.412855 0.0287925
9315 1 0.911693 0.372896 0.024264
9 1 0.921291 0.483497 0.0245521
9406 1 0.0814637 0.0167104 0.0345056
9303 1 0.0940376 0.0882214 0.0300411
3215 1 0.052746 0.0696146 0.0374967
1518 1 0.731523 0.402818 0.0381085
12683 1 0.139746 0.0477871 0.0374365
11788 1 0.211322 0.117181 0.0341757
14154 1 0.406635 -0.000849527 0.0310927
3255 1 0.227546 0.0418166 0.0352759
12110 1 0.304109 0.0552232 0.0355994
9132 1 0.278122 0.137147 0.0381366
12620 1 0.342916 0.0983583 0.0417904
21777 1 0.425274 0.129497 0.0311549
13741 1 0.391919 0.06649 0.0361064
13308 1 0.460657 0.0726434 0.0402479
11579 1 0.336589 0.143045 0.0345315
12671 1 0.540585 0.053465 0.0419911
12282 1 0.469379 0.0424909 0.0338788
3303 1 0.501811 0.136661 0.0362832
2236 1 0.614432 0.0717887 0.0407929
9035 1 0.634696 0.0761639 0.0337202
11935 1 0.557149 0.0752208 0.0353216
23195 1 0.670322 0.148615 0.0378301
13955 1 0.751502 0.0752245 0.0324623
9534 1 0.699222 0.0757582 0.0376597
22057 1 0.665731 0.419708 0.032023
23407 1 0.815201 0.0227231 0.0320589
2440 1 0.868693 0.0773581 0.0334171
21524 1 0.792773 0.0690208 0.0382483
11626 1 0.887188 0.0494927 0.0394449
701 1 0.874121 0.293364 0.00230937
8750 1 0.97356 0.100443 0.0366131
1795 1 0.934533 0.0247519 0.0347463
48 1 0.90873 0.132607 0.040407
11895 1 0.184206 0.487536 0.00706162
10167 1 0.0335966 0.146464 0.0340513
1280 1 0.0115524 0.205783 0.0379199
23871 1 0.0795535 0.21678 0.0357368
1341 1 0.178248 0.167398 0.0398851
1130 1 0.195718 0.181131 0.0305721
1093 1 0.129727 0.149698 0.0337892
14958 1 0.163461 0.230788 0.0354127
23126 1 0.221716 0.297294 0.0318817
21652 1 0.252212 0.490819 0.0185682
14023 1 0.239858 0.21514 0.0344437
1139 1 0.481639 0.494963 0.0174092
10520 1 0.362983 0.193987 0.0289981
3232 1 0.328888 0.217776 0.0364875
23926 1 0.438211 0.152418 0.0372116
11650 1 0.407778 0.229501 0.036699
23491 1 0.476783 0.200671 0.0326909
11226 1 0.552143 0.20005 0.0388257
2995 1 0.634623 0.2075 0.0331234
13431 1 0.601364 0.140851 0.035439
14507 1 0.699533 0.143025 0.0314632
892 1 0.105443 0.504004 0.0115552
10661 1 0.789281 0.221296 0.0364315
20671 1 0.75076 0.159432 0.0372829
13981 1 0.729044 0.221198 0.032112
22474 1 0.702549 0.223905 0.0390179
11007 1 0.893868 0.215941 0.0391047
13053 1 0.861974 0.250823 0.033647
22477 1 0.827368 0.150766 0.0376382
13732 1 0.88492 0.164749 0.0310087
9717 1 0.95202 0.188582 0.0347144
470 1 0.952528 0.263926 0.0348077
354 1 0.0847847 0.343117 0.0372569
2395 1 -0.00483459 0.347467 0.0302638
23796 1 0.0153986 0.392438 0.0389096
13103 1 0.0554974 0.288258 0.031762
11413 1 0.194689 0.506876 0.0270351
1903 1 0.120122 0.273888 0.0393381
22535 1 0.135064 0.302318 0.0328858
12711 1 0.852659 0.00376192 0.00866387
21471 1 0.192141 0.308181 0.0394789
11974 1 0.338024 0.0238236 0.00729582
12938 1 0.259265 0.249262 0.040753
623 1 0.281769 0.298889 0.0349814
10780 1 0.433151 0.297746 0.0305382
23971 1 0.347773 0.297149 0.0399484
2808 1 0.351069 0.355249 0.0319568
21089 1 0.413317 0.312562 0.0365842
22281 1 0.481409 0.271992 0.0360428
11221 1 0.576441 0.270973 0.0338957
13215 1 0.509718 0.323931 0.032152
23893 1 0.489435 0.344 0.037971
15179 1 0.710821 0.326314 0.0353293
12535 1 0.643793 0.276314 0.0379772
21146 1 0.573593 0.323577 0.0378522
10122 1 0.505141 0.0189201 0.0275711
2866 1 0.742217 0.306735 0.0293287
14028 1 0.830518 0.0111276 0.0219976
13092 1 0.546019 0.270638 0.0426384
13868 1 0.826437 0.37571 0.0384438
10804 1 0.775544 0.308248 0.0366909
2587 1 0.838186 0.29185 0.0395719
12172 1 0.137373 0.335239 0.000232856
12820 1 0.0194173 0.305028 0.0377739
21008 1 0.915501 0.310336 0.0388889
23329 1 0.920713 0.32293 0.0314362
562 1 0.699603 0.480369 0.0363358
14278 1 0.119532 0.49816 0.000980478
23035 1 0.0913354 0.439415 0.0354619
943 1 0.21581 0.439032 0.0321486
2191 1 0.093982 0.414111 0.0410565
9590 1 0.941682 0.457337 0.0403244
12927 1 0.163682 0.458784 0.0381453
14783 1 0.164438 0.383069 0.0357641
22127 1 0.280921 0.443419 0.037885
115 1 0.108409 0.49824 0.0195215
13761 1 0.235558 0.364721 0.0342596
9138 1 0.357456 0.474379 0.0403443
776 1 0.415463 0.397954 0.0396505
3321 1 0.378531 0.426126 0.0350121
14090 1 0.31602 0.370199 0.0377195
2412 1 0.443157 0.382379 0.0329199
11004 1 0.549506 0.448478 0.0380398
11776 1 0.58477 0.39361 0.0340987
2335 1 0.655865 0.42315 0.0394314
11718 1 0.445936 0.48254 0.0114818
13690 1 0.0415251 0.144851 0.0414695
9963 1 0.470629 0.451845 0.0370219
11607 1 0.932904 0.49477 0.0108259
20608 1 0.0710329 0.497297 0.0311803
3032 1 0.929837 0.027504 0.000373303
11540 1 0.0513704 0.0811481 0.0452397
13221 1 0.0827676 0.146192 0.0486772
13821 1 0.022587 0.00465228 0.0471757
2175 1 0.116788 0.0188941 0.0448278
12056 1 0.139822 0.0822269 0.0483994
966 1 0.192791 0.0279847 0.0459791
15437 1 0.111091 0.105813 0.0409637
13912 1 0.335417 0.0512281 0.0464089
2521 1 0.210412 0.102148 0.0499445
2827 1 0.257357 0.0426439 0.0417444
21984 1 0.25914 0.336795 0.0418891
23665 1 0.417226 0.105784 0.044916
15188 1 0.49558 0.00199407 0.0516328
22968 1 0.472838 0.0402707 0.0462705
14532 1 0.537733 0.0985266 0.048753
2487 1 0.452665 0.0908984 0.0508008
9084 1 0.618991 0.0704685 0.0486128
1603 1 0.665175 0.139606 0.0445525
23522 1 0.692673 0.0823861 0.0509283
12761 1 0.773639 0.0784088 0.049368
21930 1 0.681182 0.0364184 0.0441799
1737 1 0.752755 0.0190996 0.0432933
22997 1 0.716532 0.0125344 0.0500079
13397 1 0.73137 0.0946761 0.0431322
14216 1 0.809333 0.123072 0.0439908
9890 1 0.834776 0.0347126 0.0456445
1392 1 0.904032 0.100312 0.0465209
3558 1 0.988278 0.0912655 0.0487561
12185 1 0.92514 0.0228238 0.0459221
587 1 0.10506 0.195138 0.0420976
13901 1 0.0143439 0.189702 0.0457929
22048 1 0.119729 0.184399 0.054356
9205 1 0.702749 0.00581643 0.0815382
21995 1 0.168642 0.164063 0.0472139
756 1 0.185787 0.240983 0.0437955
9861 1 0.174867 0.245855 0.0505624
15493 1 0.231838 0.176684 0.0435772
1515 1 0.368341 0.140753 0.0481305
13997 1 0.323373 0.215256 0.0499338
1630 1 0.121127 0.0196455 0.0750861
10307 1 0.441689 0.193052 0.0479871
20932 1 0.379254 0.227062 0.0451721
21166 1 0.501604 0.15419 0.0508602
9290 1 0.492852 0.133732 0.0439117
13367 1 0.52719 0.197932 0.0460456
22016 1 0.494972 0.272328 0.0501309
930 1 0.215976 0.426889 0.0418684
11153 1 0.194261 0.0948586 0.0425083
13427 1 0.593913 0.17018 0.0478892
12505 1 0.666275 0.181207 0.0507482
1661 1 0.756156 0.150397 0.0502441
23301 1 0.740522 0.242204 0.0482796
9519 1 0.750925 0.194949 0.0430335
23463 1 0.82507 0.210757 0.042183
13888 1 0.889317 0.209354 0.0469262
12819 1 0.837465 0.151 0.0500502
21688 1 0.805689 0.211469 0.0526465
13621 1 0.959971 0.24941 0.0431243
23469 1 0.963701 0.226861 0.050262
11825 1 0.956506 0.161897 0.0454702
12787 1 0.0885579 0.222886 0.0483082
21128 1 0.0283088 0.307655 0.0483454
9378 1 0.131283 0.291599 0.0471631
22942 1 0.0533166 0.34136 0.0429331
621 1 0.215328 0.314458 0.0475775
9425 1 0.172776 0.327279 0.0534209
23721 1 0.262362 0.250091 0.0477991
11799 1 0.319532 0.298489 0.0456404
9333 1 0.264389 0.389644 0.0475917
13091 1 0.431823 0.295077 0.0427847
2387 1 0.382007 0.294547 0.0495215
22605 1 0.420614 0.361377 0.0465148
1639 1 0.507379 0.331898 0.0451379
14014 1 0.665186 0.249572 0.0456265
9860 1 0.602253 0.358533 0.0524015
11257 1 0.597687 0.258428 0.0482131
15370 1 0.664248 0.304426 0.0504314
11157 1 0.518032 0.381796 0.0495497
12689 1 0.600229 0.331845 0.0461981
12126 1 0.308988 0.190669 0.0437794
3314 1 0.738581 0.340532 0.0487522
753 1 0.801309 0.285709 0.0450759
23118 1 0.860292 0.265785 0.0508036
265 1 0.804436 0.319043 0.0521862
13649 1 0.839504 0.35254 0.0475758
13262 1 0.89403 0.297408 0.0458138
392 1 0.971415 0.321052 0.0440637
13815 1 0.953083 0.294947 0.0516997
1902 1 0.0226115 0.374818 0.051811
2471 1 0.0774651 0.426945 0.0470292
13366 1 0.107103 0.367525 0.0488652
439 1 0.881703 0.482316 0.0716386
12858 1 0.182075 0.397186 0.0489817
2951 1 0.156022 0.453351 0.04484
10524 1 0.565244 0.396604 0.0419964
860 1 0.221323 0.468874 0.0481149
14652 1 0.340126 0.37542 0.0441195
2759 1 0.29501 0.438409 0.0508755
1319 1 0.377405 0.444372 0.0460397
62 1 0.479791 0.411734 0.0440343
3523 1 0.891272 0.500182 0.0793139
12702 1 0.483522 0.484471 0.049655
22277 1 0.553003 0.451092 0.0504582
823 1 0.609649 0.434267 0.047171
15032 1 0.40576 0.0167321 0.0434432
14356 1 0.684505 0.413933 0.0450345
2389 1 0.671687 0.389724 0.0515046
13358 1 0.685723 0.472243 0.0501697
1715 1 0.777994 0.411926 0.0486763
13834 1 0.761636 0.463946 0.0419795
9977 1 0.288542 0.106804 0.0830807
12389 1 0.99209 0.395909 0.0453413
14729 1 0.911986 0.45172 0.0464498
886 1 0.92861 0.36731 0.0506512
12283 1 1.00513 0.457069 0.0504537
9448 1 0.0175512 0.045201 0.0616026
209 1 0.071134 0.0719778 0.0510737
10943 1 0.067912 0.109166 0.0565723
13077 1 0.139197 0.0321229 0.0553161
23476 1 0.164329 0.117282 0.0548423
22939 1 0.228664 0.0505528 0.0579275
1292 1 0.0942451 0.0658248 0.0623364
14579 1 0.980277 0.065811 0.0416844
23386 1 0.274535 0.0499895 0.0515052
13374 1 0.239729 0.124919 0.0566408
12233 1 0.306118 0.0863666 0.058172
13586 1 0.372061 0.0947929 0.0538011
1358 1 0.437042 0.0657451 0.0570916
1168 1 0.371985 0.0208563 0.0619705
11790 1 0.350124 0.0168254 0.0550241
10815 1 0.504929 0.106519 0.0552676
14175 1 0.512306 0.0283534 0.0578973
9299 1 0.569251 0.0475094 0.0532759
22030 1 0.602495 0.128587 0.0534137
23171 1 0.657592 0.0731019 0.0570701
13858 1 0.736278 0.0423279 0.0560946
22215 1 0.739086 0.0961068 0.0622816
22940 1 0.851286 0.0642411 0.0517986
1404 1 0.79062 0.101071 0.0548663
2337 1 0.794176 0.0354518 0.0608962
13343 1 0.928656 0.05595 0.0516959
15473 1 0.887047 0.0570842 0.0575924
14710 1 0.989214 0.0876078 0.0554552
9152 1 0.95523 -0.00372109 0.0612092
11278 1 0.761167 0.429912 0.0788717
10334 1 0.0343975 0.248281 0.0520304
9708 1 0.0157513 0.166805 0.0518078
13141 1 0.0622114 0.223368 0.0579895
12731 1 0.152558 0.253031 0.0568452
21069 1 0.121889 0.158488 0.0602987
9766 1 0.0291157 0.155926 0.0598136
2462 1 0.162239 0.0754786 0.0604651
2152 1 0.195805 0.193412 0.0580599
12652 1 0.144293 0.247624 0.062942
12069 1 0.233982 0.176951 0.0508755
14523 1 0.301608 0.132957 0.0520471
13269 1 0.238003 0.259748 0.0552436
1783 1 0.290807 0.187966 0.0579163
14318 1 0.419949 0.254625 0.0544988
14552 1 0.37266 0.185517 0.0544169
14949 1 0.372927 0.137765 0.0592288
9946 1 0.480174 0.11865 0.0612952
11491 1 0.435275 0.141559 0.0547558
11040 1 0.554456 0.169794 0.0594725
3233 1 0.486134 0.221999 0.0565382
23332 1 0.564229 0.205986 0.0527449
10840 1 0.630799 0.203323 0.0565699
12950 1 0.565999 0.252358 0.0601889
12914 1 0.695281 0.139808 0.0561469
14646 1 0.714469 0.174376 0.0626672
1012 1 0.704741 0.23505 0.054299
15431 1 0.76523 0.231215 0.0591308
403 1 0.868212 0.135505 0.056095
15607 1 0.781449 0.156867 0.0588132
14172 1 0.872272 0.191642 0.0606658
10473 1 0.891397 0.203598 0.054283
2862 1 0.816498 0.241646 0.0640466
22286 1 0.974849 0.223517 0.0572931
11857 1 0.937291 0.135919 0.0527337
12318 1 0.934949 0.141267 0.0598658
22607 1 0.0917751 0.299168 0.0540338
12470 1 0.0714839 0.373716 0.0572128
14997 1 0.0475116 0.282677 0.0622442
23146 1 0.1971 0.309873 0.0595425
22683 1 0.117997 0.330076 0.0610258
14653 1 0.250398 0.341183 0.0629186
21330 1 0.282756 0.316083 0.0511257
12723 1 0.280358 0.252897 0.0610862
1666 1 0.315916 0.33141 0.0576585
12746 1 0.325963 0.256996 0.054965
1757 1 0.23363 0.367897 0.0545304
22356 1 0.369488 0.276848 0.0605263
11401 1 0.396669 0.331817 0.0555875
1026 1 0.488059 0.298985 0.0578345
1656 1 0.557653 0.296013 0.0536798
3368 1 0.454512 0.352986 0.0525181
28 1 0.536058 0.321265 0.0636203
1434 1 0.446267 0.270595 0.0630534
22500 1 0.620673 0.28595 0.0563453
10691 1 0.619186 0.316512 0.0644305
23807 1 0.66305 0.345519 0.0574139
21500 1 0.697944 0.273047 0.0618002
10435 1 0.809485 0.32187 0.0608774
11722 1 0.7413 0.30207 0.0554208
14255 1 0.838944 0.269534 0.0577217
12323 1 0.813552 0.387709 0.0577256
12254 1 0.871783 0.354241 0.0550773
555 1 0.882759 0.320733 0.0636672
540 1 0.00404947 0.314141 0.0571322
12845 1 0.958249 0.381357 0.0577905
9750 1 0.922091 0.280147 0.0579852
407 1 0.0940992 0.430921 0.0535309
10293 1 0.0280829 0.442866 0.0575423
9483 1 0.101063 0.422562 0.0622721
608 1 0.89949 0.380771 0.0426883
10398 1 0.21631 0.446744 0.0544209
21390 1 0.151755 0.38537 0.056945
15310 1 0.201862 0.407871 0.0612526
1929 1 0.15082 0.484347 0.057536
9914 1 0.348172 0.381177 0.0509339
11387 1 0.276933 0.411999 0.0578075
9191 1 0.183963 0.111554 0.0827955
14228 1 0.429728 0.420562 0.0509538
1241 1 0.412735 0.432607 0.0595317
20943 1 0.347264 0.405142 0.0562435
2780 1 0.359342 0.47351 0.0529644
13009 1 0.566103 0.364731 0.0582794
1340 1 0.509117 0.417833 0.0558356
21023 1 0.473355 0.37288 0.0602918
22170 1 0.475332 0.44047 0.0644513
23984 1 0.648636 0.49832 0.0616817
2712 1 0.568854 0.449912 0.0600368
3133 1 0.621931 0.436306 0.0553773
15035 1 0.641229 0.399433 0.0616831
2035 1 0.77416 0.478621 0.0555568
1680 1 0.699895 0.437572 0.057917
12806 1 0.733948 0.353669 0.0617768
13112 1 0.74842 0.381999 0.0551071
15224 1 0.773215 0.437302 0.0612019
9262 1 0.853976 0.479021 0.0555752
13517 1 0.852529 0.413482 0.0511264
14 1 0.883408 0.419154 0.059463
22969 1 0.765497 0.359357 0.0432143
10950 1 0.958589 0.451144 0.0817464
13803 1 0.928637 0.452446 0.0542344
1442 1 0.959401 0.450034 0.0617911
13100 1 1.0011 0.113047 0.0644675
14547 1 0.046358 0.0306956 0.0679584
2776 1 0.0487513 0.0595163 0.0746172
21655 1 0.294014 0.462471 0.0445219
22613 1 0.978666 0.240597 0.0822518
12643 1 0.206524 0.0207483 0.0671635
732 1 0.129444 0.0433152 0.069129
23957 1 0.307659 0.0761807 0.0684302
22116 1 0.287961 0.023994 0.0632042
10671 1 0.267701 0.0233664 0.0715282
22430 1 0.278849 0.148151 0.0717154
23509 1 0.234777 0.0955876 0.0637324
23298 1 0.394789 0.106792 0.0641671
856 1 0.279381 0.116762 0.0457979
14966 1 0.374318 0.0416487 0.0689079
3404 1 0.827306 0.428954 0.0437618
1345 1 0.459194 0.0422049 0.0648111
13904 1 0.544691 0.0660394 0.0666526
9025 1 0.426429 0.113871 0.0703443
10586 1 0.584492 0.0680478 0.0592164
23323 1 0.970278 0.504304 0.0747688
2785 1 0.631362 0.0477474 0.0643544
1287 1 0.605283 0.0854269 0.0706089
21470 1 0.768119 0.0578622 0.0691007
12181 1 0.68573 0.0474612 0.0693405
22908 1 0.703113 0.0206467 0.0622289
12222 1 0.849363 0.104459 0.0624602
23766 1 0.844607 0.0274211 0.0673269
14223 1 0.916059 0.0549445 0.0640258
21479 1 0.971013 0.044483 0.0690565
10532 1 -0.0117404 0.122733 0.0717018
21710 1 0.0705816 0.119162 0.0671457
904 1 0.129118 0.175515 0.0704193
12621 1 0.0660075 0.194636 0.0646809
3262 1 0.0368008 0.198461 0.0704593
484 1 0.151704 0.122319 0.0656588
1250 1 0.150972 0.247284 0.0721648
14173 1 0.362402 0.210183 0.0617113
12982 1 0.298447 0.151263 0.0638595
9702 1 0.221507 0.168653 0.0640243
671 1 0.294968 0.226388 0.0670139
22204 1 0.224058 0.190692 0.0710667
21578 1 0.349805 0.16182 0.068438
21345 1 0.431334 0.199916 0.0604582
2247 1 0.374172 0.24478 0.0681431
14089 1 0.51835 0.204843 0.0645483
946 1 0.431273 0.179969 0.0672177
21242 1 0.496749 0.136492 0.0676409
714 1 0.576316 0.140215 0.0664484
22524 1 0.562058 0.213603 0.0724404
14619 1 0.631757 0.173309 0.0689839
3423 1 0.641096 0.125115 0.0618852
22810 1 0.638124 0.210977 0.063085
11731 1 0.691147 0.125535 0.0681946
22054 1 0.728176 0.226453 0.0675091
12461 1 0.761642 0.133269 0.0720978
12969 1 0.783675 0.164433 0.0662933
21268 1 0.784815 0.219298 0.0715709
23479 1 0.840067 0.131967 0.0701047
781 1 0.851322 0.20533 0.0688079
23774 1 0.917808 0.142354 0.0670522
23877 1 0.983165 0.183851 0.0649788
23011 1 0.948742 0.205411 0.0706789
12489 1 0.0967334 0.258032 0.0677379
2296 1 0.0768785 0.352008 0.0668158
2700 1 0.996926 0.265067 0.0674863
14797 1 0.0242612 0.371069 0.0619228
23243 1 0.134623 0.323496 0.0729074
3026 1 0.163782 0.310809 0.0663325
13795 1 0.340206 0.387049 0.0638929
3021 1 0.31402 0.305397 0.0655878
22663 1 0.261927 0.254956 0.0735118
12189 1 0.221727 0.251815 0.0670868
15427 1 0.232981 0.332686 0.0698473
23159 1 0.390958 0.326856 0.0690921
21425 1 0.406769 0.347356 0.0628158
10904 1 0.436911 0.278253 0.0748091
2638 1 0.470204 0.276177 0.0693941
1591 1 0.654815 0.250175 0.0705808
11321 1 0.574098 0.264612 0.0669868
9756 1 0.678195 0.340743 0.0736368
2288 1 0.687425 0.30421 0.0675544
21111 1 0.537927 0.340418 0.0709811
22031 1 0.739287 0.379256 0.0677311
9566 1 0.766672 0.304177 0.06727
13870 1 0.784823 0.344399 0.0732808
852 1 0.848672 0.296392 0.0702645
3013 1 0.894403 0.249729 0.0743808
3329 1 0.875502 0.382966 0.0701819
22181 1 0.96132 0.316106 0.0629161
22425 1 0.910548 0.25203 0.0654501
9870 1 0.927452 0.330261 0.0695133
673 1 0.00630976 0.361952 0.070186
2600 1 0.0387197 0.498098 0.0708253
22566 1 0.130545 0.487758 0.0510025
14524 1 0.0379991 0.435988 0.0658863
11835 1 0.100752 0.43579 0.0721414