ITEM: TIMESTEP
6499935
ITEM: NUMBER OF ATOMS
24000
ITEM: BOX BOUNDS pp pp pp
-2.0834916256085023e-03 3.3247289394437317e+01
-2.0834916256085023e-03 3.3247289394437317e+01
-1.0460058582747251e+00 3.9998847669199154e+02
ITEM: ATOMS id type xs ys zs
21167 1 0.11533 0.123105 0.00675437
35 1 0.435281 0.00626096 0.000703018
12489 1 0.0198239 0.040216 0.032962
23483 1 0.199893 0.000828079 0.00569436
15015 1 0.202962 0.0828945 0.005517
23052 1 0.011987 0.00838535 0.0153185
2766 1 0.306344 0.0775129 0.00975279
127 1 0.90235 0.0293036 0.0130555
1884 1 0.85454 0.454966 0.00467725
11437 1 0.36802 0.0656322 0.00348239
905 1 0.338053 0.489466 0.00775593
2314 1 0.461057 0.0793651 0.00768441
21082 1 0.521433 0.117768 0.00993032
1036 1 0.488775 0.152621 0.00325044
14836 1 0.514094 0.0489068 0.00230585
11656 1 0.63718 0.111383 0.00211024
12405 1 0.570705 0.127019 0.00432725
15477 1 0.859178 0.383162 0.000805415
2214 1 0.618857 0.0622888 0.00691766
14803 1 0.0955408 0.459063 0.0196239
11799 1 0.680164 0.114448 0.00833643
13786 1 0.447807 0.481076 0.0188798
12087 1 0.0478915 0.0831469 0.00634928
11221 1 0.972205 0.471057 0.0394215
13900 1 0.677947 0.0244783 0.00660589
15368 1 0.509962 0.277082 0.000662077
12809 1 0.753769 0.128056 0.00491313
13096 1 0.124149 0.499643 -9.38251e-05
9588 1 0.840355 0.0699852 0.00405362
14089 1 0.153623 0.0985119 0.000588048
21209 1 0.943833 0.0372501 0.00640883
88 1 0.022573 0.18854 0.00831511
20960 1 0.103849 0.201382 0.0126556
12297 1 0.984866 0.132459 0.00684564
12630 1 0.182502 0.161674 0.005597
21896 1 0.193901 0.228341 0.00384686
20858 1 0.776263 0.504073 0.0043572
23105 1 0.0410127 0.140066 0.00119223
21094 1 0.247955 0.149292 0.00401831
624 1 0.28222 0.0402891 0.00450131
908 1 0.246919 0.170834 0.0110687
12409 1 0.326599 0.137508 0.00609357
825 1 0.410935 0.162156 0.00284835
15216 1 0.118414 0.483109 0.0390897
858 1 0.437599 0.250974 0.00292881
21105 1 0.307655 0.194038 0.00122656
11921 1 0.532803 0.227323 0.0053664
718 1 0.466538 0.204885 0.00786459
2522 1 0.226451 0.481521 0.0239813
13002 1 0.594711 0.262806 0.0068996
58 1 0.60793 0.229989 0.0122476
21572 1 0.537067 0.186936 0.0137913
10780 1 0.785525 0.0286615 0.00475262
9545 1 0.628733 0.198922 0.00214976
15318 1 0.701435 0.174923 0.00195921
10485 1 0.611507 0.16202 0.00839936
781 1 0.840523 0.23871 0.00756977
2142 1 0.676459 0.215519 0.00776589
22959 1 0.758128 0.195834 0.00993929
9436 1 0.84244 0.155092 0.00463285
23442 1 0.896271 0.110189 0.00962113
22221 1 0.949796 0.215084 0.00689096
22061 1 0.114903 0.213546 0.00585534
22028 1 0.135052 0.303106 0.00544161
2574 1 0.0617931 0.300825 0.00226496
2853 1 0.0823097 0.273572 0.0103269
13249 1 0.233338 0.409474 0.00316004
11715 1 0.42713 0.00182628 0.00748563
3404 1 0.248755 0.278241 0.00927598
12457 1 0.428996 0.34715 0.0409939
14372 1 0.296958 0.223962 0.00796404
13044 1 0.205422 0.327877 0.00356537
11555 1 0.275155 0.362104 0.00700515
1175 1 0.378777 0.224963 0.00532367
10142 1 0.709433 0.372911 0.0375327
11606 1 0.538955 0.333544 0.00435128
21141 1 0.546816 0.472358 0.0258386
23716 1 0.456101 0.346303 0.00316274
22983 1 0.457239 0.404151 0.00940432
11133 1 0.627315 0.339532 0.00277659
23496 1 0.667938 0.400534 0.00736381
699 1 0.672262 0.303152 0.00930099
10458 1 0.680193 0.274519 0.00272905
12190 1 0.75087 0.273899 0.00686842
3007 1 0.727787 0.330976 0.00263288
15087 1 0.783781 0.210626 0.00247353
9516 1 0.78751 0.376083 0.00469919
1892 1 0.809185 0.294574 0.00190315
11357 1 0.912427 0.31177 0.00442152
12433 1 0.977223 0.275009 0.00177512
12461 1 0.952635 0.358343 0.00905797
3117 1 0.020173 0.404924 0.00449053
1841 1 0.889092 0.215485 0.00304218
13772 1 0.100518 0.374463 0.00482919
21743 1 0.0717359 0.424228 0.0116637
23068 1 0.00431883 0.279094 0.0077223
22285 1 0.157998 0.410077 0.00204006
13336 1 0.157356 0.447812 0.00812302
10488 1 0.172107 0.382385 0.00870366
13094 1 0.896296 0.439945 0.0113004
10689 1 0.569799 0.452359 0.0397425
12853 1 0.29644 0.440328 0.00406158
12167 1 0.232627 0.466182 0.00885829
9845 1 0.197296 0.488553 0.0023893
21319 1 0.417101 0.441466 0.00519619
313 1 0.268605 0.272075 0.00241104
15239 1 0.390436 0.340578 0.00854458
11935 1 0.8339 0.480111 0.0319646
3036 1 0.488831 0.479172 0.00602616
9535 1 0.623192 0.440792 0.00406305
14586 1 0.924936 0.413294 0.00414849
1064 1 0.604072 0.369822 0.00938757
10794 1 0.644388 0.469024 0.012638
21652 1 0.749853 0.438352 0.0081364
13732 1 0.988822 0.0505784 0.0261303
22300 1 0.758967 0.440879 0.01459
14877 1 0.500107 0.252293 0.0411787
3262 1 0.0618078 0.392483 0.0404159
23448 1 0.376874 0.359028 0.00194258
10202 1 0.980792 0.442513 0.00943435
13675 1 0.644019 -0.001907 0.0193598
21268 1 0.905777 0.356554 0.0146707
180 1 0.131806 0.0496857 0.00637709
22505 1 0.177191 0.475575 0.015308
14381 1 0.991273 0.0804457 0.012521
10742 1 0.0160938 0.0762919 0.0183452
10914 1 0.0822974 0.0453077 0.0117067
13304 1 0.166147 0.0241166 0.0133867
414 1 0.144159 0.0969224 0.012443
23371 1 0.226548 0.0863882 0.0113526
540 1 0.221479 0.0705602 0.0179588
9916 1 0.311594 0.0591312 0.0158175
9316 1 0.378311 0.0604038 0.0210082
2778 1 0.317138 0.117854 0.0209355
880 1 0.710638 0.0439172 0.0380596
21165 1 0.38284 0.0488953 0.0122201
2267 1 0.454467 0.0667615 0.0147802
23465 1 0.542042 0.492195 0.0027534
12432 1 0.508524 0.12225 0.0167311
14393 1 0.377077 0.00260044 0.0313421
14857 1 0.618044 0.0786548 0.0198999
2942 1 0.60805 0.0217934 0.0128686
15039 1 0.555813 0.0183585 0.016826
1677 1 0.717659 0.123739 0.0204663
1244 1 0.742251 0.127729 0.0137051
829 1 0.565669 0.36122 0.0399409
2472 1 0.750068 0.0613726 0.00942012
12385 1 0.769423 0.0617885 0.0169114
2458 1 0.837699 0.0584895 0.01037
2442 1 0.82658 0.0629982 0.0233133
14111 1 0.710216 0.0726827 0.00168792
14841 1 0.845492 0.0144457 0.0184134
11558 1 0.868105 0.0995554 0.0166848
862 1 0.97951 0.464896 0.00373789
12580 1 0.944987 0.119643 0.0159962
21831 1 0.961696 0.17821 0.012626
21930 1 0.0171921 0.24053 0.0138665
12811 1 0.06033 0.13707 0.0124599
9995 1 0.177392 0.148976 0.0160029
14646 1 0.243387 0.132026 0.0201434
22113 1 0.309149 0.134829 0.014422
10555 1 0.252098 0.219922 0.0213219
9132 1 0.33696 0.196768 0.0220396
23378 1 0.301535 0.222585 0.0145755
14739 1 0.379997 0.123024 0.0160098
2127 1 0.392239 0.119561 0.00862539
9032 1 0.445306 0.163745 0.019432
11953 1 0.364214 0.188568 0.0115191
10835 1 0.380909 0.21929 0.0175751
23065 1 0.448342 0.148675 0.0121942
14831 1 0.465827 0.233564 0.0149165
2344 1 0.592623 0.109009 0.013176
12363 1 0.59271 0.176642 0.0179674
13410 1 0.630979 0.147733 0.0236496
13568 1 0.687872 0.0767659 0.014595
14453 1 0.572649 0.217969 0.0245302
462 1 0.667653 0.162855 0.0139215
11652 1 0.681342 0.207535 0.0204808
9056 1 0.791657 0.136908 0.0179622
21210 1 0.735209 0.20106 0.01584
12651 1 0.821771 0.205838 0.0144497
14822 1 0.819332 0.140902 0.0110704
11823 1 0.930285 0.279827 0.0111984
13216 1 0.886381 0.200896 0.011067
2169 1 0.94259 0.234438 0.0175534
14305 1 0.0425916 0.386976 0.0172116
2560 1 0.0494976 0.297998 0.0156121
2429 1 0.184594 0.305988 0.0105156
21721 1 0.067491 0.231042 0.0195826
9331 1 0.130294 0.27591 0.0165826
2795 1 0.17998 0.220869 0.0104462
13471 1 0.152257 0.198389 0.021262
14517 1 0.20997 0.257787 0.0161161
2247 1 0.319581 0.296061 0.0125939
21235 1 0.320314 0.281646 0.0192221
3558 1 0.321574 0.376001 0.0141458
23623 1 0.332742 0.298783 0.00492103
10296 1 0.469913 0.287806 0.00867835
13640 1 0.398944 0.270173 0.0115241
1927 1 0.54934 0.407515 0.00548195
21355 1 0.407475 0.283575 0.0206869
502 1 0.539642 0.281043 0.0112562
12357 1 0.547561 0.252272 0.0175229
22811 1 0.598588 0.319769 0.0147227
14569 1 0.662823 0.33282 0.0179714
23397 1 0.631962 0.264148 0.0197771
21181 1 0.678126 0.257002 0.0144774
498 1 0.739009 0.360133 0.009917
12928 1 0.727019 0.282202 0.0200616
2811 1 0.824174 0.311906 0.00990638
13295 1 0.765976 0.346032 0.023037
10258 1 0.767477 0.270614 0.0133675
14058 1 0.8063 0.294521 0.0184571
14400 1 0.98494 0.33336 0.016522
11153 1 0.868333 0.274299 0.0153623
23455 1 0.108257 0.34092 0.0123594
23482 1 0.191026 0.275186 0.0221924
21732 1 0.187605 0.338776 0.0165538
11105 1 0.138503 0.399835 0.0153812
11460 1 0.115094 0.346886 0.0205505
22414 1 0.258364 0.337753 0.0176427
12558 1 0.240094 0.384537 0.0123682
23761 1 0.29892 0.447142 0.0138443
22057 1 0.319991 0.428254 0.0209605
10183 1 0.345863 0.40773 0.00804415
206 1 0.3948 0.44976 0.0122843
14403 1 0.428439 0.0925663 0.000666176
11717 1 0.484359 0.466954 0.0129941
23497 1 0.476396 0.306501 0.0148934
14301 1 0.46764 0.40378 0.016235
14048 1 0.535116 0.455854 0.0187851
9957 1 0.526232 0.373873 0.0129406
3189 1 0.571108 0.450544 0.0109626
13893 1 0.608065 0.405315 0.0163874
11877 1 0.682184 0.392223 0.0140876
12507 1 0.703059 0.392314 0.0207512
11434 1 0.736463 0.343642 0.0163689
166 1 0.688012 0.43483 0.0256184
2928 1 0.811066 0.376396 0.016252
9105 1 0.860377 0.415719 0.0179901
641 1 0.869534 0.373685 0.00738193
9499 1 0.792218 0.419104 0.0214908
22771 1 0.816659 0.427101 0.00982544
10337 1 0.0366711 0.353375 0.00986568
23391 1 0.948202 0.393387 0.021299
14758 1 0.961048 0.410574 0.0148614
14686 1 0.0145124 0.471915 0.0159009
12857 1 0.180577 0.205749 0.0397749
12206 1 0.0941699 0.0395291 0.0285894
23101 1 0.0605601 0.0867277 0.0239541
21875 1 0.123006 0.0534627 0.0187165
13084 1 0.155571 0.11409 0.0225978
3322 1 0.25475 0.0864926 0.0252886
23315 1 0.316628 0.0290452 0.0255459
1933 1 0.17471 0.0354865 0.02617
14523 1 0.343821 0.095197 0.0291431
11139 1 0.421153 0.0541856 0.027726
9985 1 0.473709 0.041512 0.0328522
10297 1 0.912257 0.106216 0.00302564
14636 1 0.908843 0.495068 0.0289587
21488 1 0.459542 0.0848976 0.0218254
14661 1 0.541565 0.106934 0.021933
2671 1 0.503237 0.0639403 0.0264302
1867 1 0.474677 0.15469 0.0258869
14395 1 0.301968 0.462556 0.0364725
12079 1 0.554829 0.0579816 0.0342218
966 1 0.58814 0.0818641 0.027315
12275 1 0.38607 0.446296 0.0323344
10160 1 0.698735 0.116758 0.0267627
9340 1 0.708911 0.0292771 0.020869
692 1 0.922769 0.336786 0.0266264
11720 1 0.0781685 0.464272 0.00538067
14491 1 0.856161 0.0658188 0.0303868
1225 1 0.757677 0.0599919 0.0250496
21994 1 0.903249 0.0246705 0.0242751
9310 1 0.668781 0.44759 0.0396157
9395 1 0.979642 0.125524 0.0230316
2941 1 0.898692 0.10236 0.0230006
15243 1 0.932468 0.0954182 0.0287795
2769 1 0.479015 0.00532852 0.0205743
1753 1 0.101021 0.15985 0.0262616
340 1 0.0140712 0.198112 0.0250642
22759 1 0.00908361 0.158302 0.0180982
9947 1 0.0475108 0.185223 0.0312771
9187 1 0.0991582 0.14531 0.0188447
14361 1 0.204369 0.147649 0.0270172
13378 1 0.12839 0.222252 0.0305681
9035 1 0.19358 0.22128 0.0267151
1926 1 0.275449 0.159631 0.0264288
23607 1 0.248619 0.210769 0.0318876
12217 1 0.336397 0.185732 0.0301482
14230 1 0.417857 0.147088 0.0307448
11064 1 0.385021 0.133623 0.0240843
13077 1 0.485143 0.211623 0.0306242
12372 1 0.409215 0.206641 0.0251774
23972 1 0.522159 0.184067 0.0208645
1758 1 0.569185 0.260316 0.0298332
23307 1 0.54331 0.155237 0.0282647
10563 1 0.661308 0.183563 0.0285015
21408 1 0.65216 0.258364 0.0265364
23979 1 0.73173 0.186528 0.0245928
23567 1 0.744614 0.26697 0.0272832
77 1 0.796465 0.223465 0.0217193
14532 1 0.809456 0.282886 0.0253758
15328 1 0.824611 0.144252 0.0248394
3114 1 0.946992 0.20993 0.0240515
22272 1 0.982491 0.280933 0.0218611
2862 1 0.898465 0.1717 0.0289706
13350 1 0.114365 0.256294 0.0246533
9762 1 0.0877497 0.390242 0.0255042
21345 1 0.0374716 0.258533 0.0288584
14356 1 0.111967 0.312618 0.0277936
23512 1 0.182002 0.356765 0.023262
1756 1 0.31896 0.323897 0.0280965
14008 1 0.262822 0.324409 0.0235629
23491 1 0.258061 0.252863 0.0367622
11947 1 0.278924 0.24321 0.0266988
13625 1 0.338444 0.355572 0.0211524
1193 1 0.349051 0.261859 0.0252843
9281 1 0.322887 0.270121 0.0325335
14154 1 0.394406 0.346316 0.0148182
9850 1 0.384568 0.34064 0.0324548
9963 1 0.470439 0.321684 0.0226481
21314 1 0.399038 0.343503 0.0259004
23999 1 0.497479 0.248667 0.02388
10314 1 0.580187 0.295142 0.0238106
9610 1 0.473458 0.372993 0.0290797
9262 1 0.501476 0.310946 0.030004
21644 1 0.618748 0.324382 0.0297161
13886 1 0.62836 0.366931 0.0227854
22728 1 0.705189 0.308609 0.0313824
11630 1 0.691943 0.325488 0.0257142
15432 1 0.699479 0.383633 0.0299211
9533 1 0.773202 0.327295 0.0294599
9909 1 0.852636 0.364896 0.0234023
22961 1 0.895471 0.172495 0.018319
22747 1 0.914761 0.313794 0.0196994
10390 1 0.99827 0.324594 0.0312607
666 1 0.0523008 0.298514 0.023194
10691 1 0.949208 0.261246 0.0288697
22686 1 0.0189256 0.352567 0.0260351
13187 1 0.0137426 0.431539 0.0231487
22860 1 0.234618 0.344471 0.0388191
21718 1 0.290915 0.355388 0.000139718
14142 1 0.0932957 0.462118 0.0262006
532 1 0.119084 0.440117 0.0335837
74 1 0.167565 0.433929 0.0214476
21069 1 0.243242 0.418015 0.0205744
23841 1 0.175707 0.444025 0.028403
21582 1 0.0752542 0.0564404 8.37338e-05
9708 1 0.921208 0.490442 0.0191263
2008 1 0.853674 0.32648 0.0296574
2731 1 0.393755 0.407849 0.0195095
1605 1 0.471815 0.421323 0.0228304
3196 1 0.636496 0.263526 0.0415636
12752 1 0.480995 0.455553 0.0294355
3269 1 0.544525 0.388495 0.0264193
8848 1 0.641546 0.461385 0.0218135
2528 1 0.886405 0.453563 0.0363107
1434 1 0.546912 0.364532 0.0195573
13172 1 0.661088 0.462583 0.0337439
23388 1 0.613716 0.415129 0.0281446
1919 1 0.761619 0.41306 0.0276764
13052 1 0.903395 0.39877 0.0309755
15221 1 0.753235 0.429449 0.0342721
23899 1 0.806084 0.360953 0.0348766
2995 1 0.836584 0.401855 0.0292221
23664 1 0.881672 0.437112 0.0242359
2112 1 0.963789 0.429996 0.0279376
11387 1 0.0101239 0.0377115 0.0403053
12600 1 0.0948211 0.0553871 0.0381762
12918 1 0.190235 0.0130817 0.0383842
1783 1 0.0363796 0.116388 0.02859
12718 1 0.823781 0.480898 0.0165587
2263 1 0.15667 0.0899796 0.0303362
1293 1 0.508339 0.321374 0.0384076
23548 1 0.170733 0.0920266 0.0373869
1370 1 0.0415004 0.224012 0.000522029
12731 1 0.271971 0.077237 0.0388031
1915 1 0.229871 0.0530384 0.0311868
12166 1 0.514713 0.0357675 0.0100793
9158 1 0.252126 0.0067046 0.0213036
12932 1 0.730088 0.485356 0.0289096
12452 1 0.310679 0.0586201 0.0334976
14638 1 0.415226 0.0829811 0.0354437
622 1 0.712802 0.237064 0.0385587
14875 1 0.492621 0.185054 0.0361307
14587 1 0.504422 0.417928 0.000945352
14018 1 0.631853 0.114338 0.0322744
22143 1 0.634365 0.0894516 0.0384583
14348 1 0.93472 0.267361 0.0403873
14749 1 0.624662 0.0147812 0.0317991
1239 1 0.709974 0.0567757 0.0308081
283 1 0.785833 0.102138 0.0365455
21910 1 0.841114 0.163232 0.0335348
12212 1 0.7813 0.0355079 0.0326374
2191 1 0.427398 0.245747 0.0404997
13277 1 0.924083 0.0586757 0.0343557
13853 1 0.994512 0.113877 0.0347469
12893 1 0.0897922 0.121346 0.0339349
428 1 0.0509887 0.11143 0.0398509
12334 1 0.103022 0.225822 0.036934
12425 1 0.170848 0.170092 0.0336283
10009 1 0.117563 0.15657 0.0401541
1755 1 0.245171 0.174081 0.0380623
3350 1 0.238079 0.11934 0.0336246
12225 1 0.346991 0.224609 0.0381234
10235 1 0.346521 0.123024 0.0363365
73 1 0.424804 0.280721 0.0287755
23995 1 0.404062 0.233031 0.0332978
11157 1 0.415467 0.165347 0.036785
22915 1 0.495046 0.111595 0.0321815
21599 1 0.490407 0.0861064 0.039623
14233 1 0.522474 0.255142 0.0354608
14210 1 0.561677 0.135884 0.0376705
22783 1 0.580396 0.189232 0.0340524
1518 1 0.650028 0.174361 0.0373924
12354 1 0.646996 0.24638 0.0335565
11614 1 0.948853 0.0366583 0.0188588
1683 1 0.963408 0.198874 0.040083
2695 1 0.720128 0.141851 0.0341903
20760 1 0.757861 0.480779 0.0222975
1690 1 0.727207 0.214681 0.0321364
11327 1 0.85883 0.236348 0.0388773
2913 1 0.917731 0.135419 0.0353383
12931 1 0.783765 0.114408 0.0299967
15037 1 0.793492 0.202077 0.0288511
23873 1 0.918377 0.216887 0.034642
9406 1 0.884949 0.256371 0.0243491
14335 1 0.978809 0.187721 0.0315983
13358 1 0.0387037 0.17573 0.0374085
14547 1 0.265003 -0.00146609 0.0362357
14 1 0.0855576 0.299033 0.0341096
203 1 0.965897 0.396111 0.0355584
10004 1 1.00588 0.252182 0.035825
2309 1 0.0829157 0.371185 0.0331877
13760 1 0.234404 0.322914 0.0303184
12930 1 0.161664 0.376938 0.0311706
14190 1 0.229857 0.405807 0.0336288
22110 1 0.569641 0.0239058 0.0236651
23533 1 0.244044 0.395627 0.0270861
23386 1 0.178 0.296712 0.0340448
943 1 0.380856 0.491785 0.0223548
12318 1 0.306728 0.348982 0.0343943
15286 1 0.624282 0.389138 0.0354375
20953 1 0.366061 0.307525 0.037846
1134 1 0.664186 0.0523781 0.0258441
22775 1 0.442077 0.299232 0.0353894
15192 1 0.60391 0.013166 0.0379402
23427 1 0.560479 0.351252 0.0326522
12068 1 0.578046 0.291279 0.0374699
15166 1 0.34803 0.0145099 0.0377104
12919 1 0.659093 0.320988 0.0363662
21991 1 0.138193 0.00901003 0.033875
15292 1 0.782498 0.189878 0.0376055
9292 1 0.775076 0.277742 0.0350759
10859 1 0.845132 0.258057 0.0327523
14410 1 0.84033 0.31126 0.0394
1740 1 0.117929 0.306449 0.0400172
1671 1 0.896631 0.372928 0.0382
21133 1 0.91085 0.310157 0.0340538
23326 1 0.0474652 0.427707 0.0300226
10361 1 0.968777 0.473648 0.0327255
3536 1 0.0340855 0.453845 0.0354522
13868 1 0.743604 0.409981 0.00227677
13686 1 0.151388 0.394953 0.0384622
23582 1 0.189239 0.473482 0.0349956
23509 1 0.335788 0.474103 0.0270033
12697 1 0.894488 0.50775 0.040769
12257 1 0.318491 0.391689 0.029015
48 1 0.712872 0.114644 0.0414503
2585 1 0.814475 0.463824 0.0388066
856 1 0.446811 0.391419 0.0343911
930 1 0.489254 0.408796 0.0410133
2939 1 0.364742 0.388923 0.0377616
707 1 0.394886 0.424524 0.0252328
173 1 0.529487 0.413553 0.0350534
9733 1 0.469756 0.478802 0.0362894
22631 1 0.00375422 0.00314677 0.00323666
671 1 0.569027 0.213866 0.0399267
620 1 0.252847 0.489586 0.0301559
23255 1 0.786088 0.0160974 0.0392585
2009 1 0.0091914 0.325824 0.0375373
10097 1 0.290574 0.393625 0.0399032
12064 1 0.393795 0.486108 0.0396859
13493 1 0.57622 0.468086 0.0324703
12652 1 0.857133 0.0635041 0.0384972
13209 1 0.216421 0.423591 0.0404908
11241 1 0.911211 0.499115 0.00727003
12581 1 0.698404 0.495707 0.00707357
23425 1 0.741835 0.499108 0.0388979
1466 1 0.904626 0.126184 0.041775
23690 1 0.201125 0.271795 0.0405628
12130 1 0.371746 0.0825409 0.0416801
1000 1 0.818387 0.379341 0.0408496
14344 1 0.735951 -0.0117318 0.000454434
12535 1 0.0537714 0.0987435 0.0453688
21617 1 0.0683062 0.0547015 0.0493432
13764 1 0.148437 0.077143 0.0443683
13912 1 0.213195 0.0980298 0.0517979
14497 1 0.148111 0.0159737 0.0501385
23897 1 0.219995 0.0416996 0.0443394
2066 1 0.288303 0.081985 0.0488178
14968 1 0.306109 0.0241414 0.0433931
12296 1 0.292702 0.287949 0.0423615
455 1 0.370745 0.0637493 0.0481097
13933 1 0.181444 0.492959 0.0434325
22863 1 0.504661 0.0899349 0.0552867
12648 1 0.120556 0.00428771 0.070588
14352 1 0.458557 0.053355 0.0455074
8750 1 0.699994 0.0354325 0.0504692
10564 1 0.183268 0.0173955 0.0567197
2780 1 0.5593 0.0550771 0.0422447
21472 1 0.752029 0.0591857 0.0435371
1429 1 0.524438 0.0402737 0.0487341
10268 1 0.872116 0.499159 0.0712319
13433 1 0.633424 0.491481 0.0508573
11018 1 0.821178 0.106168 0.0438782
12028 1 0.395101 0.460118 0.0763287
11226 1 0.979685 0.403731 0.0725208
12589 1 0.895309 0.0876625 0.0482583
907 1 0.985803 0.0762301 0.0480586
11822 1 0.993729 0.00203362 0.0528452
15145 1 0.472482 0.442813 0.0826709
14507 1 0.986445 -0.000579795 0.0461081
11461 1 0.079352 0.20579 0.0496388
22456 1 0.0319612 0.185243 0.044369
12193 1 0.0196398 0.145896 0.0510954
14861 1 0.224727 0.126666 0.0430965
12309 1 0.113925 0.144035 0.0468524
9115 1 0.291253 0.308531 0.0816422
23043 1 0.197976 0.193832 0.0468728
22807 1 0.896368 0.491935 0.0584537
15141 1 0.375497 0.145315 0.0485555
15188 1 0.275706 0.209546 0.0437113
9890 1 0.28102 0.159573 0.0503354
23314 1 0.929615 0.0553123 0.0418289
1566 1 0.392271 0.197765 0.0550127
9953 1 0.446895 0.152686 0.0424311
1871 1 0.36411 0.177629 0.0428041
10532 1 0.532068 0.128245 0.0452937
419 1 0.518844 0.19279 0.0458901
1515 1 0.428651 0.19738 0.0489568
13684 1 0.613323 0.131814 0.0438632
23123 1 0.583306 0.0924643 0.0501524
9511 1 0.559683 0.162483 0.0540998
14653 1 0.704897 0.112653 0.0486528
9948 1 0.392368 0.00802939 0.0435451
22939 1 0.732171 0.201409 0.0496901
21128 1 0.632757 0.165995 0.0504723
702 1 0.849603 0.169746 0.0436167
12643 1 0.80188 0.23593 0.0493539
21886 1 0.87882 0.249194 0.0466302
12592 1 0.728135 0.105611 0.08339
22500 1 0.795689 0.152159 0.0484956
2067 1 0.935293 0.189349 0.0461271
13803 1 0.872786 0.177024 0.0514836
2794 1 0.967173 0.278353 0.04648
23284 1 0.00403909 0.230515 0.0512832
9717 1 0.307251 0.497933 0.0630932
12901 1 0.0983748 0.287072 0.049757
1420 1 0.452387 0.446849 0.0564775
3957 1 0.122497 0.237467 0.0444428
10939 1 0.189511 0.289877 0.0477196
2131 1 0.101572 0.351913 0.0457576
3085 1 0.249751 0.341176 0.0465045
12642 1 0.604801 0.00913992 0.0743271
15105 1 0.33444 0.362957 0.0456504
844 1 0.337939 0.21719 0.0490804
14390 1 0.321966 0.297963 0.049046
22430 1 0.92995 0.0116119 0.0758788
13851 1 0.555764 0.286561 0.0446883
13504 1 0.455936 0.270553 0.0469954
21108 1 0.585459 0.241384 0.052262
10611 1 0.20281 -0.00356304 0.064206
15165 1 0.598761 0.218808 0.0459849
2512 1 0.650817 0.27806 0.0485908
3321 1 0.714249 0.272698 0.0449142
22663 1 0.766755 0.312087 0.0474546
15232 1 0.761035 0.475832 0.0630934
11401 1 0.670908 0.189368 0.0447844
11937 1 0.843404 0.314366 0.0464978
22231 1 0.776623 0.359449 0.0537775
2934 1 0.651062 0.361154 0.0418329
10495 1 0.912994 0.314368 0.0511434
14729 1 0.0435141 0.263264 0.042663
884 1 0.918705 0.33987 0.0441315
21984 1 0.0227538 0.345614 0.044628
14015 1 0.0497268 0.426843 0.0476941
3387 1 0.127111 0.437754 0.0447318
11769 1 0.915619 0.0134582 0.049677
15372 1 0.188836 0.45881 0.0498992
12326 1 0.118723 0.429485 0.0512901
2054 1 0.184988 0.384908 0.0452876
15326 1 0.0890511 0.00144197 0.0545345
12256 1 0.259294 0.496253 0.0428007
10624 1 0.840355 0.0290332 0.0457301
1483 1 0.297663 0.457037 0.0523728
15473 1 0.483491 0.469709 0.0503097
13135 1 0.409816 0.415717 0.044062
11507 1 0.490967 0.340451 0.0446319
1009 1 0.472086 0.402058 0.0481115
22780 1 0.550061 0.408628 0.04478
13515 1 0.544492 0.351609 0.0501878
599 1 0.616159 0.353106 0.0474673
2029 1 0.670816 0.421198 0.0522443
21664 1 0.0339838 0.0350007 0.0598128
1392 1 0.709823 0.368321 0.0485321
12850 1 0.799554 0.384621 0.0476456
14014 1 0.705852 0.449858 0.0466373
10178 1 0.823381 0.462515 0.0463042
9882 1 0.235105 0.0119669 0.0504183
1045 1 0.867206 0.366067 0.0525998
14790 1 0.888663 0.429948 0.043434
14618 1 0.952841 0.394566 0.0501836
2244 1 0.887684 0.452236 0.0498501
9608 1 0.965842 0.470313 0.0530805
2138 1 0.13464 0.0996088 0.0521583
13210 1 0.968809 0.403983 0.0423771
9222 1 0.0301363 0.0921727 0.0551672
734 1 0.0917007 0.0838769 0.0579769
11693 1 0.975542 0.127729 0.0429878
10192 1 0.96673 0.460379 0.0467114
10573 1 0.178286 0.089193 0.058315
12293 1 0.775288 0.00844609 0.0520784
1999 1 0.264408 0.0516713 0.0561122
14254 1 0.330637 0.101544 0.0539185
12475 1 0.264292 0.00645287 0.068573
1361 1 0.32594 0.0686892 0.0614204
10084 1 0.35488 0.00178201 0.0588388
1226 1 0.429488 0.035645 0.0532655
14545 1 0.42767 0.0440639 0.06481
22750 1 0.40076 0.0652154 0.0587004
14850 1 0.451901 0.11823 0.0619743
22094 1 0.845898 0.0319763 0.0787467
2700 1 0.615052 0.0182168 0.0511965
342 1 0.721417 0.00808991 0.0624758
15255 1 0.558966 0.0194335 0.0570549
2016 1 0.661334 0.0462016 0.0439422
10773 1 0.259282 0.498189 0.0727755
21576 1 0.799575 0.0676219 0.0592295
13595 1 0.779968 0.0803022 0.0513196
13512 1 0.721479 0.0529877 0.0566586
508 1 0.869847 0.0696102 0.0606309
13812 1 0.861688 0.0476843 0.0538833
22692 1 0.946851 0.155042 0.051541
22225 1 0.00843599 0.162525 0.0811746
23093 1 0.937464 0.0730895 0.055015
10777 1 0.933937 0.128811 0.0616224
10134 1 0.0741117 0.177148 0.0553673
13911 1 0.163535 0.259663 0.0533028
10114 1 0.108155 0.139027 0.062644
1581 1 0.152047 0.183139 0.0525538
10804 1 0.305481 0.19525 0.0564435
21578 1 0.255988 0.13451 0.0573638
12980 1 0.183525 0.14035 0.0658478
9152 1 0.259475 0.207743 0.0619825
13299 1 0.228263 0.212906 0.0540533
14644 1 0.357384 0.254712 0.0443142
12671 1 0.415099 0.113828 0.0537912
23463 1 0.355947 0.148984 0.0590649
12470 1 0.348631 0.256246 0.059701
2290 1 0.491801 0.235687 0.052183
1912 1 0.482441 0.140168 0.0504992
14781 1 0.465073 0.17627 0.0574637
22318 1 0.534842 0.150824 0.0604922
22788 1 0.540309 0.229948 0.057888
484 1 0.637882 0.0876223 0.055103
2926 1 0.783444 0.169152 0.0548942
2600 1 0.704949 0.135808 0.0553983
13113 1 0.740875 0.21693 0.0598664
392 1 0.781464 0.148617 0.0609514
14535 1 0.839907 0.215243 0.0578088
21409 1 0.86118 0.127294 0.0561178
12505 1 0.920769 0.243614 0.0530763
754 1 0.915803 0.193563 0.0583958
22477 1 0.987752 0.16456 0.0571148
1198 1 0.975415 0.253452 0.0585403
21255 1 0.0764827 0.264708 0.0557036
13883 1 0.108045 0.298229 0.063499
9084 1 0.130501 0.223874 0.0593305
13570 1 0.069911 0.364316 0.0528934
23342 1 0.0375231 0.382115 0.0619289
2089 1 0.148211 0.355901 0.050724
9510 1 0.206934 0.263509 0.0592264
22079 1 0.203547 0.355667 0.0634702
23770 1 0.301148 0.272126 0.0548664
12775 1 0.251736 0.258819 0.0488171
12428 1 0.227571 0.315212 0.053328
2619 1 0.27682 0.422114 0.0469854
22030 1 0.351365 0.338091 0.0570189
22080 1 0.403324 0.339513 0.046766
22555 1 0.387775 0.275843 0.0515428
13204 1 0.531708 0.309416 0.0573456
14179 1 0.432486 0.263981 0.0562414
369 1 0.475715 0.312182 0.0516736
12830 1 0.508307 0.378581 0.0559454
13565 1 0.412099 0.356763 0.0544648
142 1 0.623646 0.15701 0.057781
22002 1 0.617597 0.241807 0.0585803
1546 1 0.682367 0.220345 0.0543197
23600 1 0.688893 0.276744 0.058512
2273 1 0.748054 0.28359 0.0530534
10054 1 0.83508 0.28048 0.0533557
486 1 0.797125 0.278823 0.0623888
11072 1 0.828839 0.334343 0.0586273
12388 1 0.00794143 0.316254 0.0510572
14489 1 0.880642 0.284154 0.060462
14470 1 0.933202 0.335801 0.0570801
11194 1 0.942797 0.29924 0.0647851
407 1 0.123074 0.411456 0.060463
12927 1 0.0498318 0.45469 0.0542202
2692 1 0.226766 0.398705 0.0510706
13213 1 0.201176 0.433614 0.0632616
12587 1 0.244698 0.50227 0.0554694
10340 1 0.243371 0.355473 0.0578901
22142 1 0.928567 0.453745 0.0682769
23103 1 0.533481 0.434877 0.0688629
10688 1 0.301787 0.379749 0.0525321
10398 1 0.352546 0.414009 0.0573119
2165 1 0.383797 0.431244 0.0515721
1763 1 0.55547 0.477178 0.0567704
23129 1 0.56715 0.43512 0.0504168
13937 1 0.5699 0.466418 0.0640857
3523 1 0.505706 0.439973 0.0614455
780 1 0.186018 0.491935 0.0768149
15297 1 0.605941 0.321692 0.0541238
21793 1 0.599413 0.396782 0.0571427
21788 1 0.635609 0.471512 0.0571613
2480 1 0.445299 0.283336 0.0816316
14543 1 0.687537 0.340266 0.0535448
13823 1 0.793214 0.39954 0.0615459
13775 1 0.742939 0.422039 0.056422
13130 1 0.852234 0.447311 0.0624758
751 1 0.825894 0.430696 0.0541593
13276 1 0.991 0.394179 0.0559225
211 1 0.964378 0.453387 0.0607715
1517 1 0.895007 0.404534 0.0578062
23216 1 0.016383 0.322688 0.057922
10473 1 0.0890956 0.0662013 0.0653602
10664 1 0.95833 0.0461972 0.061663
12969 1 0.131237 0.086285 0.0710365
13418 1 0.0216133 0.114005 0.0623153
14755 1 0.157675 0.0619796 0.0644329
12421 1 0.820537 0.171818 0.0816489
8870 1 0.247843 0.068015 0.0635296
2471 1 0.203454 0.0599838 0.0691132
1799 1 0.328103 0.455953 0.0446321
12274 1 0.298632 0.13534 0.0637588
21242 1 0.125052 0.485938 0.0561014
2140 1 0.320392 0.0113631 0.0763613
11362 1 0.737809 0.196724 0.0797842
10116 1 0.370832 0.133087 0.0652471
3021 1 0.349419 0.00828289 0.0657401
13799 1 0.493029 0.0521992 0.0697102
13752 1 0.369621 0.267492 0.0788908
11650 1 0.516617 0.0628519 0.0627798
22829 1 0.660409 0.0317276 0.0671959
14888 1 0.399093 0.4887 0.0594044
12910 1 0.637922 0.0759382 0.0613336
11760 1 0.576785 0.0595091 0.0689273
10064 1 0.72228 0.049112 0.0703099
21075 1 0.194946 0.428612 0.0571821
478 1 0.745154 0.0914678 0.0646613
13046 1 0.811664 0.035892 0.0663687
23812 1 0.82378 0.113779 0.0669465
13392 1 0.810926 0.0615907 0.0733593
12787 1 0.491954 0.486523 0.0740577
9975 1 0.599556 0.0881627 0.077952
9860 1 0.91443 0.0604954 0.0663186
11438 1 0.973056 0.122044 0.0679746
645 1 0.0471914 0.222695 0.0614292
1259 1 0.0844635 0.136068 0.0695011
3097 1 0.167077 0.173926 0.0714718
13988 1 0.191604 0.179082 0.0589798
13296 1 0.201772 0.102539 0.0752676
1935 1 0.247273 0.155901 0.0691059
21184 1 0.334983 0.162908 0.0708606
21811 1 0.327977 0.213843 0.0652427
11949 1 0.430206 0.173766 0.0681187
22967 1 0.275091 0.230814 0.068773
2950 1 0.362701 0.23392 0.0701827
23118 1 0.496244 0.2006 0.0636372
621 1 0.499744 0.132143 0.0670829
15456 1 0.448246 0.250333 0.0683028
320 1 0.530779 0.212271 0.0695818
15011 1 0.577594 0.138975 0.0654245
13409 1 0.595496 0.337084 0.0696579
2108 1 0.658907 0.21388 0.0635433
23874 1 0.572587 0.146578 0.072247
13149 1 0.71668 0.211012 0.0730108
13325 1 0.723169 0.262176 0.0652857
23035 1 0.700183 0.133275 0.0618657
812 1 0.807696 0.218219 0.0659169
13241 1 0.735651 0.167406 0.0673
9956 1 0.830147 0.209831 0.0713668
1276 1 0.864069 0.156087 0.0628107
1366 1 0.969448 0.204034 0.0635697
21180 1 0.0285708 0.289937 0.0645456
1080 1 0.0980607 0.211332 0.0668948
1216 1 0.158018 0.328179 0.0582902
14738 1 0.157085 0.294731 0.0686763
33 1 0.177707 0.339942 0.0745256
1493 1 0.13058 0.243344 0.073278
182 1 0.236185 0.309937 0.0696006
9351 1 0.194595 0.225293 0.0660536
9034 1 0.267387 0.292048 0.0613642
10671 1 0.297453 0.373023 0.0710722
10351 1 0.312114 0.295037 0.0670156
23755 1 0.300984 0.368942 0.0631006
13731 1 0.355189 0.313888 0.0719736
2366 1 0.401623 0.207874 0.0623891
13901 1 0.383858 0.289839 0.0644472
9770 1 0.454068 0.34316 0.0680728
15035 1 0.541992 0.293389 0.0662407
12917 1 0.571929 0.212706 0.0637833
12779 1 0.51549 0.370522 0.0716905
1442 1 0.59744 0.302079 0.0616125
1522 1 0.612658 0.290553 0.0751328
12254 1 0.744932 0.33728 0.059477
1299 1 0.764975 0.339537 0.0664903
11398 1 0.652273 0.290752 0.06744
23250 1 0.745194 0.429693 0.0675086
2635 1 0.672994 0.36741 0.0684381
14473 1 0.868335 0.288601 0.0675265
12708 1 0.847035 0.35683 0.0661778
11605 1 0.844883 0.30981 0.0739026
21350 1 0.954482 0.153061 0.073898
11361 1 0.896869 0.231562 0.0650801
728 1 0.0118537 0.325173 0.0746091
15455 1 0.971082 0.282864 0.0705956
21263 1 0.915933 0.288726 0.0764367
14415 1 0.0808138 0.420974 0.067252