ITEM: TIMESTEP
6666600
ITEM: NUMBER OF ATOMS
24000
ITEM: BOX BOUNDS pp pp pp
-2.0834916256085023e-03 3.3247289394437317e+01
-2.0834916256085023e-03 3.3247289394437317e+01
-1.2836487358280806e+00 4.0022611956955103e+02
ITEM: ATOMS id type xs ys zs
1366 1 0.0819312 0.0483771 0.00548835
10815 1 0.285307 0.0139692 0.0365426
2689 1 0.134526 0.425928 0.00409737
15371 1 0.140567 0.088589 0.00375009
10661 1 0.263372 0.00406755 0.00324042
12064 1 0.402055 0.208397 0.000568063
12358 1 0.202963 0.0623287 0.00646294
10913 1 0.288922 0.0558463 0.00770466
2941 1 0.295977 0.0930534 0.00161416
3401 1 0.399209 0.162499 0.00812406
12580 1 0.44463 0.0835257 0.00841621
10229 1 1.00187 0.00182273 0.00410141
2156 1 0.382981 0.100415 0.00314841
21755 1 0.192281 0.0297836 0.0119353
11434 1 0.520713 0.064027 0.007044
2096 1 0.591577 0.0495027 0.0053974
392 1 0.962382 0.317721 0.0356998
10046 1 0.679148 0.0941344 0.00580577
11218 1 0.760338 0.127511 0.0059856
23407 1 0.773278 0.0980793 0.0116243
3153 1 0.823483 0.0559132 0.00441883
21105 1 0.844862 0.202395 5.56514e-05
1484 1 0.472194 0.284798 0.000605322
1942 1 0.945652 0.0719085 0.00330112
14491 1 0.272273 0.500344 0.0205509
700 1 0.743237 0.351167 0.00175605
9633 1 0.077637 0.210474 0.00410362
14583 1 0.0779078 0.141348 0.00716707
11921 1 0.540357 0.0621496 -1.49349e-05
11394 1 1.00056 0.194901 0.00363864
701 1 0.149647 0.172134 0.00371746
14018 1 0.921259 0.484324 0.0277866
3514 1 0.322608 0.164197 0.00179427
15166 1 0.314534 0.132191 0.00739622
15561 1 0.272452 0.229072 0.00677303
1164 1 0.439569 0.229235 0.00639933
22811 1 0.484005 0.136005 0.00620332
1004 1 0.588029 0.210823 0.0114959
11304 1 0.532929 0.203686 0.00729541
13097 1 0.621611 0.138071 0.00310178
14066 1 0.69532 0.0769399 0.0108954
9703 1 0.647863 0.146846 0.0108174
13911 1 0.662789 0.233793 0.0120641
12154 1 0.611782 0.216786 0.00447884
11958 1 0.601117 0.284102 0.00856611
13863 1 0.782148 0.203158 0.00837776
21327 1 0.696981 0.194873 0.00706358
2808 1 0.841114 0.141354 0.0065524
21441 1 0.640476 0.046976 0.0241889
22477 1 0.865705 0.225046 0.0072899
2008 1 0.987053 0.120096 0.00065885
14014 1 0.929295 0.209514 0.000754339
21890 1 0.0923882 0.494279 0.0017535
1876 1 0.935773 0.15071 0.00602073
2930 1 0.0740215 0.323623 0.00578603
8848 1 0.0156368 0.270598 0.000929749
641 1 0.188474 0.23591 0.00600009
13568 1 0.148796 0.351273 0.00357833
21743 1 0.157005 0.314007 0.0096324
12748 1 0.20944 0.387269 0.00726279
23457 1 0.351853 0.243218 0.00484644
9916 1 0.293589 0.268354 0.0130083
12893 1 0.225108 0.302443 0.00561233
11201 1 0.302415 0.304265 0.00172809
14090 1 0.31205 0.307855 0.00800069
12110 1 0.4313 0.315793 0.00757769
13559 1 0.375549 0.282663 0.0123847
23375 1 0.387534 0.364118 0.011738
12715 1 0.50989 0.280041 0.0109294
14227 1 0.511558 0.344704 0.00412511
12177 1 0.611199 0.364914 0.00634957
22036 1 0.546421 0.354118 0.0102678
428 1 0.551744 0.281858 0.00318721
1120 1 0.676962 0.413442 0.0115694
13403 1 0.621632 0.345878 0.0129733
21891 1 0.667115 0.296259 0.0049638
13308 1 0.689297 0.379758 0.00558818
102 1 0.704909 0.32537 0.0104149
2127 1 0.773124 0.309127 0.0076939
23240 1 0.872823 0.318202 0.00843714
9390 1 0.822918 0.371468 0.00552307
13515 1 0.818659 0.28654 0.00256105
176 1 0.92858 0.353408 0.00553108
11743 1 0.539528 0.135461 0.00197923
9034 1 0.915616 0.275586 0.00463702
10764 1 0.892743 0.0427851 0.00843744
9315 1 0.0549006 0.444207 0.00589451
23196 1 0.732514 0.261753 0.00347187
22785 1 0.978466 0.424401 0.0042811
897 1 0.249332 0.339975 0.0114238
10485 1 0.183281 0.475946 0.0070741
44 1 0.0945794 0.39328 0.00966681
23875 1 0.293986 0.381763 0.00419893
12039 1 0.247919 0.449077 0.00288284
892 1 0.370529 0.450121 0.00792072
298 1 0.327818 0.486214 0.00304539
13533 1 0.371375 0.359798 0.00595825
12976 1 0.465931 0.46957 0.00970254
21793 1 0.52908 0.422285 0.00700273
2440 1 0.893279 0.0220606 0.0149702
23022 1 0.164963 0.00423322 0.0280153
12267 1 0.630371 0.436504 0.0034298
14378 1 0.559572 0.407013 0.000820432
10927 1 0.677872 0.488028 0.00758009
1047 1 0.124292 0.487135 0.0103592
21078 1 0.755159 0.461096 0.00895696
21580 1 0.751467 0.386446 0.0121271
21628 1 0.70166 0.495351 0.00160629
11898 1 0.525645 0.192715 0.0401941
14465 1 0.75526 0.431714 0.00273736
2701 1 0.824154 0.467529 0.0053581
22615 1 0.956822 0.453742 0.00964127
14470 1 0.894572 0.419505 0.00192538
23667 1 0.00909633 0.383521 0.00904361
12103 1 0.137563 0.265568 0.00219283
12354 1 0.00679746 0.0776578 0.00785584
13105 1 0.122175 0.0872464 0.0109806
14061 1 0.0485808 0.0990706 0.0146862
11121 1 0.089101 0.116033 0.0206424
12648 1 0.697064 0.00272406 0.028213
1669 1 0.166521 0.149649 0.00952995
22048 1 0.909149 0.420279 0.0398628
22772 1 0.219663 0.0466756 0.0185744
150 1 0.198748 0.0745836 0.0259887
12811 1 0.239476 0.113999 0.0116975
2214 1 0.286082 0.0506619 0.014924
1045 1 0.425319 0.0432671 0.0145371
1690 1 0.416618 0.121255 0.0141538
15255 1 0.368545 0.0521087 0.00988494
22250 1 0.570585 0.124512 0.00831106
22325 1 0.564142 0.0425228 0.0193612
14158 1 0.546616 0.0152482 0.0123237
9054 1 0.505186 0.0848908 0.0137619
21471 1 0.274888 0.492878 0.0282464
1462 1 0.61591 0.0712317 0.0114906
3004 1 0.663627 0.0329384 0.0172329
21330 1 0.665778 0.110505 0.0167783
11205 1 0.766018 0.149471 0.0192744
12099 1 0.992463 0.493171 0.0317837
1765 1 0.751976 0.0640575 0.0169441
11027 1 0.917374 0.0791779 0.0201079
14749 1 0.849806 0.0905312 0.011293
943 1 0.829089 0.0560033 0.0187613
8820 1 1.00122 0.0556917 0.0179414
23121 1 0.94928 0.0965633 0.0127216
2759 1 0.508073 0.493927 0.0402359
281 1 0.0298132 0.201948 0.0187192
202 1 0.0831053 0.165683 0.0147105
3381 1 0.0451578 0.224267 0.010394
2028 1 0.0837589 0.245741 0.0157264
2249 1 0.235646 0.183605 0.0108724
12303 1 0.148024 0.205905 0.0142495
11616 1 0.215641 0.172242 0.0171018
15437 1 0.164669 0.114886 0.0165238
14537 1 0.338862 0.11085 0.0143033
14783 1 0.29436 0.18641 0.014756
21210 1 0.490839 0.16121 0.0119782
12938 1 0.411614 0.196616 0.0184469
191 1 0.339801 0.251184 0.0182224
192 1 0.355197 0.214238 0.0116178
12565 1 0.454118 0.233106 0.0127919
15165 1 0.422353 0.276758 0.0209844
23075 1 0.573008 0.138828 0.0154302
14439 1 0.494341 0.0904069 0.02031
12302 1 0.479601 0.167715 0.018228
22020 1 0.525388 0.225141 0.0153586
2766 1 0.619154 0.19063 0.0187676
2458 1 0.553053 0.180484 0.0211036
22087 1 0.726467 0.165056 0.0129162
23471 1 0.698148 0.216045 0.0172803
21524 1 0.820556 0.172192 0.0137791
559 1 0.742311 0.257218 0.0125199
23910 1 0.791162 0.219671 0.0184921
1566 1 0.824644 0.256344 0.0122875
22800 1 0.906718 0.164049 0.0133512
11524 1 0.88305 0.213914 0.0188111
2913 1 0.853778 0.132431 0.0190038
1293 1 0.952839 0.15756 0.0189337
1073 1 0.948416 0.218112 0.00871114
12657 1 1.00158 0.161473 0.011214
9084 1 0.00620888 0.119087 0.0212985
3117 1 0.0051539 0.283414 0.00781326
23902 1 0.0309526 0.327119 0.0182695
2790 1 0.119317 0.246032 0.00919711
23661 1 0.216309 0.261067 0.0130131
11139 1 0.137857 0.328944 0.0158109
9746 1 0.215303 0.360818 0.0175548
2928 1 0.101772 0.373286 0.0201695
9499 1 0.311419 0.343412 0.0163204
622 1 0.390398 0.349026 0.0189245
13825 1 0.452356 0.314027 0.0140058
2721 1 0.541477 0.355064 0.0177551
22958 1 0.482613 0.393507 0.0197796
10524 1 0.436718 0.38937 0.00654931
21418 1 0.620733 0.393223 0.0176336
2866 1 0.586865 0.277496 0.0152547
9626 1 0.562593 0.257468 0.0220544
10811 1 0.751845 0.309432 0.0164077
13986 1 0.704014 0.384344 0.0183386
13219 1 0.671788 0.313478 0.0161057
22728 1 0.818263 0.346013 0.0128307
13014 1 0.837703 0.301384 0.0177818
9645 1 0.900703 0.26846 0.013643
13145 1 0.795916 0.425339 0.0179855
22771 1 0.974714 0.32081 0.0143238
9008 1 0.910891 0.319885 0.0198625
2692 1 0.974822 0.239056 0.0149177
13449 1 0.0423455 0.396229 0.0149818
13276 1 0.0438795 0.470668 0.0122499
2472 1 0.0285179 0.453232 0.0194931
751 1 0.10709 0.450883 0.0173715
22190 1 0.210792 0.486282 0.0143895
11630 1 0.0698704 0.321325 0.012098
14958 1 0.167849 0.409787 0.014757
11153 1 0.135607 0.452701 0.0253831
23009 1 0.318226 0.402377 0.0111551
15310 1 0.26527 0.471751 0.010022
9173 1 0.348808 0.405373 0.0195965
2460 1 0.2588 0.420012 0.0161258
12901 1 0.320725 0.486387 0.0145645
666 1 0.47134 0.488043 0.0168048
468 1 0.402332 0.441805 0.0151834
23976 1 0.42634 0.461354 0.00343113
1191 1 0.477084 0.388417 0.0135463
2771 1 0.532086 0.443692 0.0145006
21857 1 0.111437 0.490652 0.0363356
350 1 0.603583 0.42691 0.0106387
21146 1 0.791743 0.49746 0.0134527
23317 1 0.646353 0.468115 0.0165871
860 1 0.00986119 0.498869 0.0253363
11382 1 0.720769 0.457205 0.015144
22057 1 0.690038 0.468808 0.0220606
21474 1 0.765993 0.488789 0.0211904
22940 1 0.825607 0.431703 0.0119989
3032 1 0.890043 0.405546 0.00941427
14222 1 0.492642 -0.000225761 0.0171496
13218 1 0.895061 0.355147 0.0147873
2805 1 0.957741 0.400997 0.0160641
23326 1 0.942162 0.445021 0.0220877
22983 1 0.0416887 0.0673932 0.0251131
13964 1 0.237937 0.151137 0.00484861
12830 1 0.149391 0.12508 0.0243618
22188 1 0.11221 0.0511474 0.024519
9141 1 0.103604 0.101657 0.0305754
13535 1 0.294061 0.455658 0.0371479
2720 1 0.167258 0.0538356 0.0333548
3125 1 0.244915 0.0898642 0.0325891
10018 1 0.303334 0.0304775 0.0270657
22635 1 0.367352 0.0565345 0.0182908
14221 1 0.309213 0.0871182 0.0226809
11966 1 0.386552 0.0263503 0.0269561
13741 1 0.41249 0.141637 0.0329421
3087 1 0.40821 0.117555 0.0215689
23533 1 0.545653 0.0513333 0.0259591
22501 1 0.459119 0.0886309 0.0281
599 1 0.00805651 0.344145 0.00360175
393 1 0.615312 0.019698 0.0304546
2641 1 0.603795 0.111627 0.0213836
2995 1 0.55516 0.117021 0.0296773
11652 1 0.915153 0.000717819 0.0311456
23195 1 0.71372 0.0905336 0.0221593
13070 1 0.794713 0.00912224 0.0225989
14652 1 0.957731 0.419786 0.0329164
21777 1 0.837179 0.0157972 0.0298277
14507 1 0.866619 0.0866241 0.0249594
1226 1 0.736582 0.138044 0.028888
1890 1 0.485533 0.01351 0.0285626
2855 1 0.945931 0.0721344 0.0272612
22863 1 0.929093 0.144858 0.0247255
9158 1 0.0613108 0.241526 0.0252411
22474 1 0.0535568 0.202204 0.031535
21599 1 0.0473495 0.150836 0.0267761
9455 1 0.115525 0.199054 0.0211288
966 1 0.11943 0.180791 0.0282098
21695 1 0.206035 0.189761 0.0249223
3509 1 0.173656 0.263054 0.0192239
15436 1 0.18612 0.141453 0.0306044
11974 1 0.260415 0.116066 0.0178585
9597 1 0.259488 0.130712 0.0268224
20932 1 0.274449 0.199273 0.0221625
1014 1 0.371684 0.107595 0.0280448
14453 1 0.342063 0.146711 0.0196877
12282 1 0.421159 0.17375 0.0265603
11064 1 0.408854 0.27196 0.0279609
14228 1 0.501959 0.153337 0.0260298
1599 1 0.461857 0.208246 0.0317498
21019 1 0.48599 0.229208 0.0231207
11935 1 0.540143 0.234084 0.0276087
9479 1 0.619408 0.182024 0.0266763
10218 1 0.688454 0.16351 0.0231515
14216 1 0.790334 0.0893179 0.0244062
13390 1 0.683773 0.189946 0.0303637
1537 1 0.662854 0.106117 0.0281736
2193 1 0.774849 0.17805 0.0340779
11717 1 0.859925 0.198501 0.0246678
902 1 0.772861 0.185209 0.0252356
9558 1 0.826644 0.231893 0.0305545
12853 1 0.831432 0.143977 0.0300449
11985 1 0.967837 0.14076 0.0314582
22532 1 0.981189 0.199936 0.0256536
2335 1 0.90155 0.199495 0.030805
13928 1 0.0953156 0.294152 0.0211621
10992 1 -0.00509427 0.276959 0.0223957
22496 1 0.0937999 0.279511 0.031674
13626 1 0.154433 0.257781 0.0267823
330 1 0.0604111 0.338098 0.0258378
10945 1 0.203606 0.432282 0.0211866
23055 1 0.180602 0.317194 0.022738
10004 1 0.208068 0.3282 0.0300732
14517 1 0.245073 0.275283 0.0270972
621 1 0.249478 0.278086 0.0188184
1267 1 0.256075 0.343756 0.023653
10060 1 0.334788 0.173617 0.0264778
379 1 0.327544 0.295535 0.0238587
908 1 0.454048 0.326955 0.0241524
14532 1 0.41762 0.340791 0.0307473
22374 1 0.486358 0.289257 0.0294353
22236 1 0.503619 0.294906 0.0187158
11720 1 0.493405 0.39632 0.0257584
1472 1 0.550091 0.331544 0.025795
1193 1 0.647788 0.285461 0.0276772
1234 1 0.654684 0.250177 0.0219281
2587 1 0.646684 0.382896 0.0298093
12828 1 0.616191 0.351178 0.0222574
9 1 0.732105 0.269408 0.0212328
12225 1 0.692197 0.313548 0.0318154
14410 1 0.764064 0.329264 0.027424
9436 1 0.813563 0.266964 0.0232303
13732 1 0.77481 0.353246 0.0223996
209 1 0.997549 0.259179 0.030163
21758 1 0.866748 0.308771 0.0252655
11695 1 0.867455 0.37822 0.0220767
1036 1 0.925431 0.251645 0.0247515
14850 1 0.938221 0.320598 0.0283557
11387 1 0.0592798 0.408889 0.0262224
12605 1 0.881442 0.00540441 0.0237899
23455 1 0.199329 0.399169 0.0268404
9188 1 0.131737 0.424215 0.0317763
14235 1 0.135044 0.358918 0.0281098
2236 1 0.434785 0.0197856 0.0214721
14947 1 0.290967 0.42794 0.0243419
22535 1 0.370073 0.36892 0.0266068
13297 1 0.415842 0.42818 0.0230943
856 1 0.33977 0.442777 0.0295423
12869 1 0.352184 0.476675 0.0222906
23807 1 0.747696 0.206773 0.0408669
13367 1 0.563341 0.415421 0.0286068
907 1 0.508967 0.490989 0.0232996
11194 1 0.492582 0.462346 0.0297167
23329 1 0.634882 0.422605 0.0245141
13615 1 0.565183 0.425466 0.0216892
13902 1 0.658701 0.454252 0.0332496
9963 1 0.578861 0.487926 0.0274883
22381 1 0.121169 0.32287 0.0401893
21812 1 0.744806 0.455788 0.031603
10804 1 0.699098 0.334817 0.0244364
23399 1 0.80854 0.467657 0.0377912
1715 1 0.743247 0.409716 0.0258441
538 1 0.814703 0.399612 0.0273966
22768 1 0.83977 0.455702 0.0234948
13705 1 0.827414 0.491835 0.0294083
14455 1 0.731538 0.443504 0.0383362
264 1 0.983456 0.423867 0.0269645
1902 1 0.973261 0.366511 0.022011
22331 1 0.895338 0.409207 0.0274605
11825 1 0.831617 0.395167 0.0402286
23966 1 0.879953 0.457871 0.0340225
15318 1 0.786395 0.0255411 0.0409082
15368 1 0.0149751 0.0802903 0.0313067
21811 1 0.0176783 0.0436572 0.0393903
14079 1 0.742034 0.0437687 0.00622319
9519 1 0.00155112 0.12746 0.0375817
15155 1 0.220398 0.0542479 0.0398695
10742 1 0.133322 0.0206872 0.0391496
404 1 0.0668122 0.0252042 0.0303686
12074 1 0.220175 0.164233 0.0360238
23342 1 0.290078 0.0900178 0.0387096
15194 1 0.760206 0.183547 0.00162353
265 1 0.672521 0.377296 0.0370234
21235 1 0.414182 0.0551125 0.0332226
14841 1 0.464702 0.00316984 0.0375699
11215 1 0.338496 0.0567148 0.0333198
11157 1 0.457108 0.092217 0.0384331
22750 1 0.391266 0.0037535 0.0384496
569 1 0.519667 0.0636873 0.0339188
10840 1 0.496091 0.144763 0.0344221
23590 1 0.549503 0.115782 0.0396698
8526 1 0.679937 0.0610337 0.0324854
9874 1 0.588149 0.0330323 0.037226
1143 1 0.736873 0.00742916 0.0349429
2173 1 0.738599 0.0960542 0.0365729
12205 1 0.750391 0.0604582 0.0285
13670 1 0.823409 0.0787653 0.0351531
22287 1 0.808388 0.403654 0.0340549
13625 1 0.0842361 0.0697042 0.0366744
10391 1 0.4766 0.198426 0.00173283
540 1 0.886394 0.0940563 0.0311514
2862 1 0.853249 0.0877694 0.0416741
14313 1 0.957378 0.0406186 0.0354532
11626 1 0.874056 0.0304421 0.0367071
10859 1 0.912412 0.506104 0.00571744
23926 1 0.100867 0.15553 0.0355237
2827 1 0.128275 0.249372 0.0367997
13366 1 0.034761 0.201687 0.037422
1337 1 0.164439 0.113173 0.0382039
20953 1 0.184867 0.220697 0.0323435
354 1 0.185075 0.218505 0.0396086
13092 1 0.708612 0.00788028 0.021365
10872 1 0.265014 0.209404 0.03036
21209 1 0.305687 0.139852 0.0347861
12296 1 0.286614 0.222335 0.0381483
22332 1 0.364178 0.225774 0.0397842
23514 1 0.652682 0.0875123 0.0391647
12294 1 0.376296 0.121965 0.0386479
21409 1 0.346537 0.206402 0.033012
11132 1 0.297662 0.0101934 0.0203419
9044 1 0.570859 0.187191 0.0326859
11257 1 0.429316 0.172814 0.0384332
23066 1 0.615086 0.164037 0.0411092
13868 1 0.624468 0.243163 0.0345386
20671 1 0.611526 0.127164 0.0343919
8870 1 0.691778 0.166112 0.0362025
23665 1 0.73737 0.255674 0.0289908
22310 1 0.477639 0.423653 0.000149766
2029 1 0.84727 0.15214 0.0364728
14464 1 0.388623 0.299668 0.00115897
13955 1 0.781733 0.117978 0.0409347
12372 1 0.418028 0.00644859 0.00668136
1041 1 0.948612 0.196002 0.0354559
9238 1 0.917779 0.118991 0.0374925
15292 1 0.871499 0.224939 0.0363004
21576 1 0.0579187 0.00409208 0.02004
1801 1 0.00957871 0.343036 0.0311806
10056 1 0.0267073 0.281853 0.0378498
21095 1 0.0478614 0.0181368 0.012105
22602 1 0.129212 0.35355 0.0340742
2395 1 0.186948 0.297167 0.0355796
178 1 0.205601 0.357193 0.0416649
11799 1 0.261868 0.27959 0.0351583
21216 1 0.268132 0.358347 0.0370048
10636 1 0.33685 0.307685 0.0381157
13044 1 0.290208 0.35387 0.0287282
623 1 0.324812 0.287867 0.0317438
1280 1 0.878552 0.450799 0.0169513
9272 1 0.406202 0.259047 0.0345134
2811 1 0.488863 0.375099 0.0325284
21283 1 0.465501 0.288402 0.0386565
22000 1 0.520305 0.24428 0.0345566
1550 1 0.583045 0.266906 0.0400763
13215 1 0.578317 0.30902 0.0316529
14179 1 0.525724 0.341337 0.0374083
12505 1 0.626246 0.312596 0.0368913
12497 1 0.243322 -0.00102251 0.0313406
2693 1 0.736395 0.382527 0.0319214
21160 1 0.713084 0.262853 0.0355344
13834 1 0.76579 0.328793 0.0369056
13358 1 0.786317 0.25419 0.0372284
1737 1 0.815986 0.311765 0.0320523
13675 1 0.907641 0.276149 0.0322884
13262 1 0.892078 0.364076 0.0336949
14758 1 0.85974 0.305411 0.0375724
9262 1 0.705245 0.321519 0.0408235
1360 1 0.085983 0.487672 0.029776
87 1 0.0609373 0.346974 0.0363897
1929 1 0.0456456 0.411712 0.0321969
12558 1 0.0466688 0.461321 0.0383664
23893 1 0.204368 0.382421 0.0340867
2025 1 0.118177 0.414646 0.0392136
2442 1 0.216788 0.433041 0.0378307
1666 1 0.190514 0.476157 0.0327744
23309 1 0.261432 0.423826 0.0311015
12787 1 0.323984 0.413628 0.0417949
12963 1 0.41819 0.438137 0.0303814
1188 1 0.438871 0.366636 0.0380631
14367 1 0.410472 0.44166 0.0375708
10234 1 0.353332 0.375059 0.0349056
10555 1 0.993675 0.390041 0.038051
23491 1 0.482917 0.441586 0.0355101
11697 1 0.554972 0.455054 0.0345465
14716 1 0.634685 0.448968 0.0390244
10780 1 0.594674 0.382174 0.0343756
21686 1 0.11752 0.0284781 0.0160746
12061 1 0.96952 0.473934 0.0387739
10850 1 0.086331 0.375881 0.00132396
11895 1 0.952158 0.490686 0.0166958
23016 1 0.517646 0.490369 0.00414377
22642 1 0.970118 0.0121558 0.0105658
9717 1 0.926501 0.25371 0.0409873
13431 1 0.660211 0.243971 0.0412033
12038 1 0.539483 0.425549 0.0402196
12689 1 0.612586 0.495717 0.0215209
11159 1 0.813513 0.0147438 0.0124536
1871 1 0.371288 0.479318 0.0414628
14028 1 0.337185 0.0339508 0.0415183
11250 1 0.911135 0.168817 0.0416642
21143 1 0.888752 0.0476489 0.000923465
2093 1 0.617712 0.265488 0.000356673
12256 1 0.950711 0.482712 -0.000281162
1982 1 0.553751 0.496716 0.072743
11505 1 0.103941 0.0802519 0.0444132
11977 1 0.0413933 0.0880351 0.0476212
9186 1 0.189047 0.0755494 0.0465335
12600 1 0.108533 0.134278 0.0486052
1755 1 0.0690767 0.000378465 0.0429404
344 1 0.119395 0.0143185 0.0486909
23126 1 0.254401 0.0305634 0.0457299
12858 1 0.32347 0.105715 0.0452953
12185 1 0.915671 0.0549347 0.0426414
11532 1 0.347201 0.0390068 0.0485309
904 1 0.381991 0.113116 0.0496706
9406 1 0.420691 0.0681673 0.0440836
1515 1 0.424944 0.0462021 0.0514582
12126 1 0.459943 0.127942 0.0522887
3232 1 0.510153 0.0926178 0.0475089
11491 1 0.587872 0.0532114 0.0440434
14361 1 0.73937 0.0262087 0.0502476
22215 1 0.706691 0.0194378 0.0722664
11776 1 0.712913 0.0627515 0.0439332
21761 1 0.784137 0.0763905 0.0466478
23621 1 0.24435 0.284488 0.0418375
2337 1 0.808921 0.152093 0.0468989
48 1 0.807007 0.0984261 0.0523838
12578 1 0.198235 0.021369 0.0717869
15473 1 0.957485 0.0368821 0.0475831
23593 1 0.899783 0.112067 0.0467213
13893 1 0.0964546 0.19532 0.0422147
13221 1 0.0322317 0.163359 0.0484875
13213 1 0.154193 0.147933 0.044037
2471 1 0.154665 0.201623 0.0479398
608 1 0.0547188 0.2359 0.0484545
14255 1 0.231394 0.142622 0.0499227
12254 1 0.299938 0.212608 0.0543336
1142 1 0.308421 0.168545 0.0490384
9914 1 0.246502 0.244505 0.0493394
14949 1 0.376165 0.166043 0.0450014
22566 1 0.376036 0.184475 0.0525949
10198 1 0.452171 0.139473 0.0441241
2152 1 0.518896 0.184091 0.0475813
9877 1 0.514659 0.269519 0.0427495
13112 1 0.965606 0.114644 0.0427288
15032 1 0.585692 0.230406 0.0463218
12470 1 0.629632 0.150921 0.0514031
10771 1 0.585023 0.128317 0.0468271
9953 1 0.65452 0.0944209 0.0460129
1661 1 0.663105 0.18934 0.0467691
21023 1 0.732756 0.124417 0.0503876
1259 1 0.753692 0.212636 0.0478181
732 1 0.584042 0.0359807 0.0589054
11221 1 0.83804 0.220367 0.0434692
2825 1 0.872452 0.207751 0.0490904
13517 1 1.00446 0.213283 0.0424439
14970 1 0.896892 0.267492 0.0534186
10022 1 0.953803 0.199855 0.0471452
13077 1 0.997181 0.327537 0.0543467
23469 1 0.0775672 0.317166 0.0479489
11007 1 0.0182344 0.379479 0.0495203
14023 1 0.0748548 0.273648 0.043136
12056 1 0.160935 0.273975 0.0449538
3329 1 0.146143 0.356459 0.0457177
2273 1 -0.00100234 0.337535 0.0426813
3321 1 0.306388 0.244966 0.0454573
21425 1 0.22849 0.32679 0.0470149
21390 1 0.303435 0.339736 0.0439319
15427 1 0.318195 0.281634 0.0519185
11953 1 0.777387 0.00925975 0.0670864
50 1 0.379299 0.244182 0.0485458
10293 1 0.367711 0.333615 0.0494638
21655 1 0.481939 0.283563 0.0489338
1671 1 0.568251 0.310725 0.0465487
23971 1 0.544538 0.24542 0.0514573
23332 1 0.657472 0.297292 0.0467664
23866 1 0.610017 0.377089 0.0496821
14233 1 0.751684 0.33795 0.0501487
11650 1 0.681576 0.338879 0.0521392
22752 1 0.731853 0.26906 0.0456721
2636 1 0.806247 0.377743 0.053986
10435 1 0.477138 0.347446 0.0433902
10773 1 0.19889 0.485463 0.0811688
2412 1 0.819756 0.25178 0.0499613
21879 1 0.822669 0.404246 0.0478102
13649 1 0.797199 0.299976 0.0439546
13209 1 0.897701 0.270264 0.0465286
9340 1 0.995189 0.274599 0.0477521
8750 1 0.88927 0.347825 0.0431758
13717 1 0.939999 0.333446 0.050483
9303 1 0.0531909 0.137532 0.0423707
15239 1 0.111771 0.402517 0.0502305
10867 1 -0.0037565 0.432775 0.0443057
23765 1 0.0884731 0.461448 0.0453898
3264 1 0.0665669 0.383818 0.0433777
14371 1 0.152574 0.347448 0.0532561
21899 1 0.143049 0.480759 0.0496079
14697 1 0.402967 0.295832 0.0435008
607 1 0.401319 0.499951 0.0784104
23567 1 0.286709 0.355769 0.0522138
10134 1 0.314153 0.42901 0.0486793
10183 1 0.208192 0.394772 0.0509227
22959 1 0.27983 0.492826 0.0451431
11788 1 0.515458 0.0376122 0.0418605
2288 1 0.44672 0.382959 0.0482699
1241 1 0.574039 0.26325 0.0809491
22406 1 0.389075 0.463579 0.047149
13427 1 0.636051 0.0133366 0.0689178
11447 1 0.536599 0.409057 0.0460511
1344 1 0.489734 0.437634 0.050953
11579 1 0.56953 0.0435976 0.065005
3262 1 0.457933 0.43706 0.043736
11475 1 0.563293 0.451163 0.052938
13042 1 0.657575 0.443555 0.0521515
1656 1 0.599738 0.448969 0.0463751
776 1 0.253307 0.418448 0.04407
22500 1 0.675436 0.37429 0.0460263
3404 1 0.732024 0.429368 0.0486341
22345 1 0.681492 0.483939 0.0440768
817 1 0.227885 0.190123 0.0823483
23391 1 0.760709 0.48054 0.0434997
15493 1 0.868977 0.416188 0.0544108
22607 1 0.843657 0.464988 0.0449047
2275 1 0.912723 0.412224 0.0465158
886 1 0.0842262 0.0726911 0.0524144
10587 1 0.067252 0.0651953 0.0589215
15010 1 0.112109 0.118393 0.0569632
10473 1 0.00772265 0.0447216 0.0538285
12711 1 0.126957 0.0396856 0.0613228
2489 1 0.147301 0.0471406 0.0552905
2191 1 0.164084 0.107963 0.0625145
23323 1 0.2138 0.087205 0.0574359
555 1 0.289158 0.0486268 0.0583684
23509 1 0.278251 0.0771255 0.0507319
13981 1 0.600223 0.358776 0.0422614
14936 1 0.642603 0.105957 0.0813713
21592 1 0.350898 0.0782462 0.055283
14997 1 0.365214 0.0939484 0.062542
22170 1 0.541553 0.132932 0.0525333
23512 1 0.510269 0.0774372 0.0564723
3423 1 0.505986 0.0171611 0.0512329
14420 1 0.783327 0.318575 0.0819349
313 1 0.759208 0.383573 0.0429779
781 1 0.575294 0.12127 0.058453
13052 1 0.658451 0.0527284 0.0605515
12212 1 0.601648 0.0715587 0.0527002
13586 1 0.671068 0.0618181 0.0535822
1341 1 0.351514 0.00977589 0.0618446
11996 1 0.791407 0.0202184 0.0536579
12425 1 0.741952 0.00120656 0.0603057
12457 1 0.847891 0.0640481 0.057615
9205 1 0.873828 0.0399535 0.0507233
13851 1 0.926378 0.0753225 0.0555595
812 1 0.968697 0.104135 0.0499075
1603 1 0.894146 0.134652 0.0599731
12916 1 0.989845 0.0898702 0.0590972
14710 1 0.0117644 0.21833 0.0539954
14547 1 0.106055 0.188984 0.0544112
1442 1 0.0311554 0.134468 0.0543018
10334 1 0.0415142 0.229113 0.0611752
2296 1 0.109389 0.187899 0.0603373
1224 1 0.188816 0.172187 0.0598801
22683 1 0.168212 0.123134 0.0527244
13786 1 0.180393 0.254216 0.0571839
22234 1 0.207815 0.196614 0.0537837
2732 1 0.254356 0.231526 0.0594704
1903 1 0.300035 0.122145 0.0551923
9985 1 0.253632 0.13206 0.061904
11414 1 0.424178 0.113974 0.0578377
13761 1 0.342759 0.162977 0.0591501
9138 1 0.422281 0.171483 0.0623417
11450 1 0.417577 0.219701 0.0568237
10257 1 0.510694 0.182217 0.0559152
9333 1 0.506743 0.124343 0.0616923
2389 1 0.581643 0.213119 0.0569394
2894 1 0.486909 0.225138 0.0610866
12671 1 0.659688 0.12098 0.0578049
780 1 0.748666 0.0967571 0.0562953
11693 1 0.700906 0.192996 0.053047
11722 1 0.785708 0.188869 0.0531931
1026 1 0.746911 0.194451 0.0598744
1795 1 0.869498 0.13818 0.0536892
3196 1 0.813137 0.132719 0.059465
3395 1 0.868107 0.164221 0.0651382
21688 1 0.852348 0.207465 0.0556649
12819 1 0.944235 0.163743 0.0547422
22030 1 0.903564 0.209392 0.0601468
23949 1 0.0839986 0.344708 0.0552631
14797 1 0.0635207 0.264478 0.0547695
852 1 0.0377802 0.309712 0.0610492
9592 1 0.14425 0.271348 0.0519022
13190 1 0.179689 0.328963 0.0589496
12820 1 0.143011 0.410352 0.0580296
2247 1 0.233327 0.299674 0.054602
23027 1 0.287334 0.325484 0.0597757
10656 1 0.221865 0.388822 0.0579079
1643 1 0.453478 0.347879 0.054009
10355 1 0.347538 0.25853 0.058805
12474 1 0.406608 0.287309 0.0541293
13937 1 0.365216 0.343673 0.0568718
22286 1 0.433342 0.298736 0.0610037
11822 1 0.462476 0.214272 0.0510209
13859 1 0.526368 0.359719 0.0514892
12124 1 0.510466 0.326979 0.0607204
12293 1 0.507676 0.269196 0.0563394
22997 1 0.660176 0.221768 0.0585848
3220 1 0.542134 0.384919 0.0579772
21578 1 0.591717 0.308176 0.0563965
11295 1 0.657474 0.331743 0.0595061
9749 1 0.633631 0.251115 0.0520906
21500 1 0.745705 0.35479 0.0584796
13009 1 0.727952 0.264322 0.0528808
12323 1 0.720431 0.275517 0.0593594
11857 1 0.80572 0.289224 0.0562293
10653 1 0.820022 0.219296 0.0611505
2309 1 0.892241 0.341962 0.0571396
23243 1 0.879925 0.289101 0.0613054
1567 1 0.846361 0.326005 0.0494853
2165 1 0.962049 0.261387 0.0588221
23796 1 0.956606 0.404784 0.0536455
1757 1 0.0392714 0.396697 0.0585743
21128 1 0.0455906 0.457178 0.0510068
2769 1 0.103284 0.479672 0.0560019
12389 1 0.176569 0.403695 0.0643724
22356 1 0.189804 0.471212 0.0544128
22430 1 0.251746 0.460419 0.0610654
12489 1 0.311461 0.413946 0.0582694
3957 1 0.26507 0.453438 0.0537308
22783 1 0.382286 0.411594 0.0530164
1420 1 0.328655 0.413177 0.064943
12290 1 0.776599 0.43697 0.0725647
1794 1 0.462008 0.409693 0.0568261
1639 1 0.422284 0.389251 0.0616314
11605 1 0.470878 0.486263 0.056839
23823 1 0.504824 0.39633 0.0656669
3133 1 0.549248 0.463848 0.0596581
21325 1 0.980567 0.016439 0.0697929
15179 1 0.634179 0.403126 0.0579463
11562 1 0.618108 0.498029 0.0554202
2035 1 0.731861 0.420298 0.0556085
15431 1 0.711675 0.426937 0.0622753
1551 1 0.810284 0.420472 0.0595298
1763 1 0.810465 0.462209 0.0536392
12283 1 0.906563 0.400562 0.0616011
23476 1 0.769333 0.480325 0.0582088
11427 1 0.957621 0.341343 0.0595802
13900 1 0.957413 0.448938 0.0591733
9354 1 0.0314358 0.00455617 0.0484808
1962 1 0.880167 0.489089 0.0599112
9129 1 0.0769207 0.0535177 0.072135
14207 1 0.0938991 0.139968 0.0723252
22322 1 0.996414 0.080029 0.0677205
23250 1 0.500175 0.104966 0.0815749
1630 1 0.0787948 0.0922767 0.0655621
22663 1 0.169779 0.433364 0.0442308
23877 1 0.155438 0.0842156 0.0694578
21984 1 0.227749 0.0462039 0.0642077
33 1 0.309759 0.132657 0.0670641
13254 1 0.246229 0.0931529 0.070751
13017 1 0.393004 0.461853 0.0589175
15011 1 0.308934 0.0450693 0.0658088
10563 1 0.381294 0.0493458 0.0691746
15370 1 0.430567 0.0323012 0.0579645
484 1 0.444182 0.0819316 0.0643901
22908 1 0.508464 0.0292454 0.0622219
14489 1 0.470165 0.0373198 0.0707088
23386 1 0.4442 0.129632 0.0713716
12563 1 0.619352 0.106609 0.0646111
22044 1 0.586188 0.0646272 0.0718126
10977 1 0.703035 0.179354 0.0708468
23804 1 0.708706 0.0497481 0.0659523
11790 1 0.711986 0.138592 0.043488
13350 1 0.780967 0.0706318 0.062778
23479 1 0.925337 0.0531659 0.0639158
335 1 0.439662 0.23179 0.0434313
2424 1 0.850308 0.0777892 0.0682048
2776 1 0.893482 0.0112108 0.0696871
13976 1 0.762177 0.0832614 0.0697025
9708 1 0.935949 0.152544 0.0669259
15224 1 0.0310531 0.156919 0.0683398
21559 1 0.0384595 0.146584 0.0617213
21173 1 0.0759588 0.256334 0.067141
13997 1 0.129445 0.164494 0.0663481
863 1 0.160967 0.204986 0.0714731
21065 1 0.199971 0.141204 0.0680336
12479 1 0.326293 0.207729 0.0635098
21166 1 0.310061 0.269104 0.0665976
14088 1 0.271737 0.171066 0.0720682
11326 1 0.37949 0.141963 0.0689819
22277 1 0.342028 0.20975 0.0700959
2521 1 0.524424 0.106419 0.0680663
3021 1 0.541122 0.242937 0.0683681
14119 1 0.473243 0.178033 0.0673375
2531 1 0.563431 0.274416 0.0630009
14173 1 0.604426 0.155086 0.0698635
14356 1 0.554011 0.182915 0.0644024
21398 1 0.67641 0.179399 0.0645042
2926 1 0.615041 0.226662 0.0675614
14636 1 0.716635 0.119339 0.0625659
2715 1 0.725385 0.241414 0.0662121
10586 1 0.663606 0.247189 0.0724966
23278 1 0.832541 0.224661 0.0690795
15607 1 0.78271 0.167461 0.0660291
21659 1 0.920073 0.248553 0.0671123
10069 1 0.975243 0.1754 0.0608022
891 1 0.937093 0.206572 0.0727287
1756 1 0.988099 0.228822 0.0665969
10950 1 0.0397656 0.329553 0.0683997
439 1 0.105952 0.365401 0.0619913
12653 1 0.114823 0.275511 0.05978
12848 1 0.1436 0.296443 0.0711836
753 1 0.167169 0.2339 0.0641024
12000 1 0.156783 0.31757 0.0654036
320 1 0.193172 0.274615 0.0763346
1028 1 0.228062 0.252228 0.0705501
22366 1 0.24716 0.195739 0.0664002
12806 1 0.227946 0.286503 0.0632103
23737 1 0.256196 0.329844 0.0709199
21123 1 0.41112 0.278842 0.07197
1898 1 0.39441 0.252828 0.0651133
9729 1 0.466216 0.262699 0.0675181
2336 1 0.346112 0.322856 0.0642736
21878 1 0.432883 0.341237 0.0669836
896 1 0.482825 0.334149 0.0731661
14281 1 0.566393 0.374539 0.0723826
14677 1 0.526832 0.319715 0.0674816
9881 1 0.559969 0.27979 0.0739962
3233 1 0.610082 0.314232 0.0692765
23841 1 0.643447 0.311323 0.0760213
13147 1 0.643266 0.380817 0.0729731
13569 1 0.789311 0.275315 0.0632524
14619 1 0.652383 0.273919 0.0641963
10734 1 0.765072 0.272246 0.0722053
728 1 0.721164 0.337498 0.0648096
12079 1 0.686444 0.306494 0.0696319
760 1 0.80992 0.34393 0.0622319
9702 1 0.851124 0.302789 0.067863