ITEM: TIMESTEP
6399936
ITEM: NUMBER OF ATOMS
24000
ITEM: BOX BOUNDS pp pp pp
-2.0834916256085023e-03 3.3247289394437317e+01
-2.0834916256085023e-03 3.3247289394437317e+01
-9.3137778737460053e-01 3.9987384862108991e+02
ITEM: ATOMS id type xs ys zs
1406 1 0.0460914 0.0248025 0.0106898
14537 1 0.642327 0.0267611 0.00247092
407 1 0.134247 0.190434 0.0127572
9916 1 0.093222 0.0951678 0.00186156
23100 1 0.34923 0.459826 0.00384672
13249 1 0.194073 0.0431828 0.00264411
22602 1 0.259956 0.0893835 0.00610809
12409 1 0.179279 0.105554 0.00722207
11630 1 0.345233 0.0458022 0.00452981
3269 1 0.30494 0.0463406 0.0108675
982 1 0.166419 0.342247 0.00164516
313 1 0.197756 0.41621 0.000383869
12396 1 0.52953 0.0491539 0.0373764
22947 1 0.447011 0.0410828 0.00310449
14711 1 0.378772 0.00697216 0.00962994
20649 1 0.281154 0.284106 0.00147741
13146 1 0.536789 0.131518 0.00612811
858 1 0.47163 0.132743 0.00168706
12313 1 0.521281 0.0486377 0.0030605
14008 1 0.620975 0.117446 0.00312499
21146 1 0.0897642 0.278522 0.0411875
22959 1 0.871897 0.468187 0.0222951
22375 1 0.725988 0.0319908 0.0144596
22505 1 0.675076 0.0840764 0.00843069
11064 1 0.723977 0.0304081 0.00651811
12428 1 0.256653 0.070718 0.0257251
13104 1 0.879072 0.0838597 0.00149137
21310 1 0.825698 0.0660105 0.00947369
2525 1 0.838357 0.126318 0.0051668
10097 1 0.0409541 0.359985 0.0349608
13626 1 0.955031 0.0861634 0.00459406
1919 1 0.969813 0.0504716 0.0118459
13786 1 0.526482 0.211663 0.000597216
12691 1 0.691204 0.0734241 9.95437e-05
14280 1 0.0893754 0.149881 0.00616139
13216 1 0.108331 0.238161 0.00497353
2565 1 0.0566164 0.177482 0.0115682
23502 1 0.0298779 0.0524499 0.00566342
1806 1 0.165154 0.179133 0.00541845
13336 1 0.193743 0.248949 0.00285188
22564 1 0.0990029 0.487695 0.0163692
10691 1 0.393514 0.392278 0.00263818
23514 1 0.271815 0.22367 0.00692124
1164 1 0.325285 0.190157 0.00145114
11652 1 0.401335 0.144507 0.00350036
641 1 0.438872 0.213257 0.00275501
854 1 0.407809 0.187611 0.00894878
22284 1 0.492406 0.185657 0.00796031
943 1 0.56116 0.19845 0.0108121
21404 1 0.594956 0.187422 0.00524796
2782 1 0.659656 0.171134 0.00853626
540 1 0.585725 0.435612 0.04129
2552 1 0.663044 0.218513 0.00375625
10803 1 0.721775 0.189888 0.0107141
2442 1 0.724623 0.149587 0.00390522
10408 1 0.00766343 0.00646435 0.0158903
15185 1 0.90907 0.115606 0.00832316
9251 1 0.79901 0.199583 0.00794977
21370 1 0.884416 0.201034 0.00613471
2326 1 0.0183855 0.179539 0.00254165
1496 1 0.957688 0.197459 0.0100111
22829 1 0.982788 0.273867 0.0132367
11507 1 0.939491 0.167599 0.00420284
15310 1 0.0340137 0.234631 0.00790034
12507 1 0.00938203 0.326058 0.00320105
22332 1 0.093868 0.316943 0.00429625
13929 1 0.0659408 0.389494 0.00319166
21141 1 0.0450193 0.319571 0.00977681
11971 1 0.169979 0.312825 0.00913576
21857 1 0.227048 0.320158 0.00472669
21732 1 0.443226 0.466248 0.0397108
22381 1 0.310035 0.317971 0.00792565
2886 1 0.305211 0.388698 0.00439569
105 1 0.343609 0.240365 0.00698293
12493 1 0.448311 0.376826 0.00792892
12212 1 0.941138 0.488211 0.00601736
2778 1 0.380146 0.301033 0.00399325
12840 1 0.496754 0.446757 0.00884824
11211 1 0.538915 0.331883 0.00737506
1867 1 0.91516 0.452656 0.0276355
9800 1 0.543746 0.256764 0.00587254
22236 1 0.755576 0.355275 0.0146916
13077 1 0.290452 0.466912 0.0165527
15032 1 0.565164 0.476457 0.0209705
1677 1 0.613685 0.300404 0.00443554
11677 1 0.699443 0.304767 0.00442928
13902 1 0.756447 0.221072 0.00233642
23391 1 0.668727 0.376501 0.00694173
22851 1 0.845496 0.276862 0.00770315
12220 1 0.762437 0.349117 0.0085794
11532 1 0.841491 0.349185 0.00430974
13298 1 0.93081 0.327617 0.00589942
12087 1 0.969302 0.259428 0.00487538
12930 1 0.973849 0.366959 0.0118949
8750 1 0.908118 0.28679 0.0111656
23979 1 0.054695 0.403563 0.00989987
305 1 0.263322 0.0324041 0.000864642
8526 1 0.129176 0.44568 0.0115422
2795 1 0.150452 0.00275961 0.0337653
9906 1 0.650238 0.00782083 0.00902515
13684 1 0.140271 0.406827 0.00523756
22143 1 0.916127 0.497183 0.0333445
13325 1 0.469057 0.336422 0.00258294
11474 1 0.256239 0.450754 0.00425018
11592 1 0.163301 0.12854 0.000666422
22970 1 0.216586 0.387796 0.00705611
12185 1 0.278064 0.387161 0.0109323
2089 1 0.186186 0.489138 0.00653127
236 1 0.889325 0.272197 0.000980033
2344 1 0.406107 0.453257 0.00789355
1370 1 0.79257 0.293965 0.00276765
13364 1 0.432492 0.45529 0.00137083
13559 1 0.59141 0.406672 0.00910427
22555 1 0.932838 0.234457 0.0400979
532 1 0.541493 0.39908 0.0044442
20932 1 0.612927 0.370629 0.00232511
11921 1 0.63635 0.452064 0.00487356
11858 1 0.392549 0.148884 0.0349137
14739 1 0.586394 0.0646111 0.00864941
13203 1 0.744086 0.425811 0.00919658
2794 1 0.905237 0.346887 0.0395146
12774 1 0.825051 0.419916 0.00584563
20760 1 0.89063 0.426489 0.00410691
14758 1 0.887614 0.469777 0.0112419
14875 1 0.969648 0.413278 0.00578787
15431 1 0.0382598 0.0665568 0.0395225
23582 1 0.803561 0.41238 0.0383661
9333 1 0.0873566 0.0867576 0.00996495
1183 1 0.865078 0.0334544 0.0406699
61 1 0.0813296 0.0650081 0.016617
283 1 0.130765 0.135222 0.0185495
14251 1 0.187788 0.0345582 0.0169222
13000 1 0.169924 0.120685 0.0134045
1820 1 0.231859 0.0672982 0.0122999
2567 1 0.353933 0.0419483 0.0155539
22512 1 0.411836 0.00540344 0.0216879
13675 1 0.720614 0.499109 0.021244
9395 1 0.38103 0.0859338 0.00933933
23307 1 0.484948 0.0274643 0.0092943
22614 1 0.513939 0.12821 0.0144614
13304 1 0.486255 0.00704851 0.0184893
1103 1 0.562842 0.0502762 0.0153051
9803 1 0.125059 0.0376135 0.00535818
21457 1 0.64173 0.0570152 0.0145931
11047 1 0.614724 0.103113 0.019219
1239 1 0.51071 0.230987 0.038358
12265 1 0.758023 0.113522 0.015995
1257 1 0.770715 0.0743827 0.0230416
9268 1 0.884599 0.0584377 0.0144116
9438 1 0.829162 0.147702 0.0123234
9056 1 0.247049 0.0475256 0.0334783
462 1 0.807616 0.0443659 0.0166562
11558 1 0.0106008 0.117559 0.00915287
12449 1 0.950542 0.111153 0.0150982
11460 1 0.9324 0.0343868 0.0203013
760 1 0.0750615 0.190885 0.0203682
12742 1 0.228119 0.165939 0.0100198
9020 1 0.197102 0.238037 0.0107669
12433 1 0.198903 0.189716 0.0174669
14811 1 0.216755 0.271858 0.0186399
1890 1 0.248124 0.118799 0.0209663
21993 1 0.308322 0.156077 0.00903046
11601 1 0.301157 0.102914 0.0144154
2779 1 0.281904 0.249573 0.012798
756 1 0.356463 0.204467 0.0134462
15194 1 0.455984 0.107685 0.00828635
1175 1 0.451033 0.0734805 0.0169592
22369 1 0.369167 0.120108 0.016535
14547 1 0.397218 0.249778 0.017821
9406 1 0.433997 0.162082 0.0152076
2855 1 0.511846 0.221083 0.0167409
13044 1 0.458809 0.229381 0.0121575
9648 1 0.626508 0.243367 0.00907224
11975 1 0.577439 0.181248 0.0175361
3028 1 0.5995 0.130347 0.0114988
21139 1 0.692281 0.0702199 0.0196439
11836 1 0.680966 0.135561 0.0146308
1929 1 0.447749 0.279011 0.00691094
13649 1 0.79453 0.146012 0.0210862
9695 1 0.75967 0.121434 0.00923459
21757 1 0.719985 0.16188 0.0198487
908 1 0.783032 0.195682 0.0159856
1267 1 0.895568 0.182129 0.0135533
12357 1 0.858758 0.197011 0.019804
22157 1 0.0168786 0.130582 0.0222112
1434 1 0.973373 0.181603 0.0162287
21185 1 0.103146 0.261723 0.0106401
22221 1 0.0445923 0.238747 0.0158131
9342 1 0.0586073 0.280705 0.0227375
10106 1 0.117679 0.333151 0.0175555
1047 1 0.0399418 0.328637 0.0169023
21909 1 0.131505 0.251364 0.0178348
22048 1 0.255022 0.395336 0.0168807
14890 1 0.120828 0.362417 0.0115383
13338 1 0.195875 0.345433 0.0182328
2127 1 0.262902 0.344231 0.0215885
13002 1 0.228127 0.314854 0.0129635
23143 1 0.308334 0.333789 0.0161165
10520 1 0.345488 0.399876 0.0205495
10009 1 0.385157 0.279443 0.0117636
12715 1 0.368368 0.372882 0.00809809
2561 1 0.549333 0.289985 0.0135399
2828 1 0.51971 0.361715 0.0129657
13151 1 0.452028 0.318239 0.0148291
11256 1 0.470541 0.267146 0.0217634
98 1 0.438239 0.365516 0.0209282
13274 1 0.614764 0.30017 0.0172888
62 1 0.677885 0.304107 0.0109371
14517 1 0.665243 0.217045 0.0150191
22169 1 0.813486 0.412957 0.012415
10314 1 0.743136 0.268562 0.00884116
10653 1 0.734069 0.251773 0.0223109
14973 1 0.746363 0.26365 0.0152813
13084 1 0.839282 0.277051 0.0189184
22557 1 0.891227 0.381157 0.00999432
1014 1 0.843148 0.233948 0.0127655
9519 1 0.843768 0.331306 0.0135569
9534 1 0.85554 0.311415 0.0241788
22772 1 0.918445 0.337262 0.0172952
754 1 0.924595 0.241026 0.0168017
22724 1 0.955941 0.480329 0.0186872
12891 1 0.0609541 0.406562 0.0163786
23121 1 0.0778946 0.450062 0.0229925
12043 1 0.136709 0.415103 0.0180806
12699 1 0.192044 0.40223 0.0134877
22115 1 0.215179 0.405035 0.0228006
404 1 0.161412 0.00829582 0.0105315
10914 1 0.328125 0.458681 0.0107394
1690 1 0.239798 0.456276 0.0103361
21984 1 0.384823 0.470993 0.0166553
21470 1 0.705672 0.444742 0.000631097
164 1 0.366523 0.382391 0.0141699
1000 1 0.44038 0.447224 0.0220112
14433 1 0.590109 0.0113983 0.0394674
13976 1 0.451762 0.400746 0.0145277
10949 1 0.5626 0.441114 0.0141735
13886 1 0.512672 0.400754 0.0201021
1719 1 0.610776 0.335975 0.0115832
1328 1 0.598836 0.378 0.0177765
12303 1 0.657737 0.453969 0.0193191
14586 1 0.768629 0.483781 0.00407373
180 1 0.668339 0.405096 0.0140094
2681 1 0.740627 0.42338 0.0187224
10636 1 0.912671 0.439029 0.0377119
21743 1 0.802531 0.472957 0.0172233
6 1 0.906476 0.414362 0.0159364
21327 1 0.840739 0.379263 0.0181476
14545 1 0.135843 0.0107295 0.0407442
13246 1 0.983099 0.43637 0.0129505
12592 1 0.978494 0.386463 0.0196435
9714 1 0.0355399 0.121302 0.0160933
9290 1 0.100616 0.0273672 0.0287073
14355 1 0.111595 0.149652 0.0253445
11786 1 0.115422 0.494657 0.00381309
9125 1 0.156807 0.0666003 0.0224818
13352 1 0.184392 0.0636776 0.0363085
13147 1 0.160119 0.0938914 0.0298183
10296 1 0.348377 0.0696475 0.0216712
23667 1 0.347044 0.178625 0.0208312
10859 1 0.332847 0.0746629 0.0319804
23794 1 0.311514 0.121213 0.0255163
12448 1 0.974339 0.393534 0.0388492
1345 1 0.393824 0.0590454 0.0280263
23226 1 0.420216 0.113998 0.0216979
9633 1 0.800122 0.49703 0.0103844
8773 1 0.54245 0.0668834 0.0224337
9985 1 0.473849 0.132297 0.0257626
9340 1 0.472402 0.0530039 0.0244163
578 1 0.781029 0.042828 0.0303804
23243 1 0.019715 0.227534 0.0390232
13173 1 0.62588 0.0355806 0.0241829
11571 1 0.86034 0.0729309 0.0221873
9588 1 0.698426 0.0297254 0.0270208
2236 1 0.686155 0.0738782 0.0315824
23765 1 0.776407 0.120672 0.028873
10939 1 0.0454024 0.486546 0.0103823
2151 1 0.854015 0.119729 0.0165855
1254 1 0.848826 0.0794473 0.0286566
22329 1 0.941095 0.0360999 0.0297014
9816 1 0.239044 0.167052 0.00287368
10218 1 0.921292 0.101819 0.0264086
2044 1 0.0817931 0.0806095 0.0233383
1526 1 0.110155 0.234801 0.0270272
23912 1 0.979331 0.130732 0.0315136
3167 1 0.0251233 0.183491 0.0267958
1515 1 0.195026 0.15277 0.0238199
23055 1 0.170929 0.17284 0.0308433
2029 1 0.1914 0.229071 0.0250735
21210 1 0.28143 0.184694 0.0153548
13350 1 0.238188 0.141797 0.0291971
23378 1 0.258949 0.192209 0.0231054
23068 1 0.256121 0.273635 0.0248648
11515 1 0.301605 0.274755 0.0305048
2816 1 0.348163 0.236956 0.0249613
13764 1 0.407049 0.295415 0.0254116
2100 1 0.302417 0.257949 0.0193557
587 1 0.489869 0.160016 0.0203685
12834 1 0.456346 0.0858099 0.0320711
22725 1 0.580758 0.179944 0.0248314
22543 1 0.510775 0.210975 0.0261823
11922 1 0.625688 0.0996181 0.0259512
12910 1 0.655426 0.180876 0.0218505
11434 1 0.643082 0.164127 0.0298939
11517 1 0.701961 0.110818 0.0253003
21319 1 0.723518 0.189316 0.0266371
23383 1 0.704678 0.267809 0.0293023
2263 1 0.723582 0.168189 0.0340332
14644 1 0.851759 0.168122 0.0261576
930 1 0.810249 0.233013 0.0244123
14967 1 0.853161 0.250622 0.0295151
11715 1 0.00575708 0.0577163 0.0268325
12651 1 0.993803 0.225016 0.0217953
1522 1 0.920303 0.145669 0.0215719
22845 1 0.942475 0.201512 0.0276831
21896 1 0.0228673 0.264235 0.0287266
23915 1 0.14873 0.312648 0.02324
22331 1 0.990903 0.341726 0.0297261
12963 1 0.209065 0.331556 0.0270143
11241 1 0.158287 0.277385 0.0308669
14367 1 0.134794 0.400569 0.0253064
22663 1 0.233754 0.286241 0.0339973
13794 1 0.266782 0.467672 0.0230717
479 1 0.288367 0.382189 0.0275484
14618 1 0.329874 0.315986 0.0251723
12648 1 0.380405 0.319548 0.018773
1109 1 0.485597 0.329001 0.026278
14638 1 0.529327 0.32809 0.019349
23761 1 0.386237 0.410377 0.0275563
21078 1 0.539056 0.388275 0.0260478
22412 1 0.554428 0.295298 0.0264582
2429 1 0.568363 0.249467 0.0208255
9152 1 0.654787 0.276523 0.0223737
11656 1 0.611393 0.337262 0.0242235
2227 1 0.63401 0.305681 0.030677
14497 1 0.689092 0.32451 0.016812
13912 1 0.774135 0.30042 0.0265531
620 1 0.763561 0.3848 0.0252309
22635 1 0.752146 0.321586 0.0324572
12744 1 0.766875 0.314275 0.0198326
21406 1 0.829819 0.315704 0.0313955
1225 1 0.971418 0.310458 0.0224043
14968 1 0.940402 0.365796 0.0262606
1572 1 0.903815 0.241232 0.0237396
22775 1 0.0541613 0.41134 0.029517
1642 1 0.192208 0.0117012 0.0285429
14335 1 0.0488809 0.357162 0.0233577
2515 1 0.204214 0.467859 0.0181064
22500 1 0.170291 0.477241 0.023683
2622 1 0.236936 0.316538 0.0407432
14018 1 0.855206 0.423294 0.0327164
2458 1 0.165041 0.4939 0.0304338
23465 1 0.460529 0.171265 0.0409585
10538 1 0.317893 0.455981 0.0288746
1366 1 0.633922 0.481757 0.0117643
10688 1 0.647645 0.495947 0.0247091
12167 1 0.356222 0.481337 0.0233186
11591 1 0.722678 0.0359186 0.0411962
15166 1 0.340294 0.383795 0.0333461
906 1 0.454457 0.392739 0.0308477
11401 1 0.504307 0.451995 0.0275223
1547 1 0.582084 0.471933 0.0291881
23084 1 0.452715 0.465148 0.0324225
2934 1 0.604448 0.424636 0.0238418
1193 1 0.672548 0.48364 0.0398365
1765 1 0.691343 0.348649 0.0274347
10485 1 0.685872 0.38422 0.0214226
12776 1 0.796936 0.461826 0.0249868
23268 1 0.713112 0.440535 0.0254755
22318 1 0.0146309 0.314406 0.0402268
3004 1 0.480095 0.468003 0.0161445
2677 1 0.83952 0.386999 0.0265771
22142 1 0.977825 0.418046 0.0325477
1354 1 0.903407 0.39446 0.0220324
23342 1 0.992131 0.429933 0.0245173
13351 1 0.744055 0.376031 0.001848
15037 1 0.950619 0.0784728 0.0350848
2214 1 0.0651762 0.119604 0.0291101
21142 1 0.0314125 0.055665 0.0327871
13645 1 0.0550695 0.135037 0.0357925
9590 1 0.0996054 0.0567626 0.0346125
2874 1 0.724974 0.190904 0.0402268
14501 1 0.299775 0.146708 0.0333235
1188 1 0.225116 0.158439 0.0356423
14506 1 0.0932119 0.178001 0.0399081
21108 1 0.794149 0.0112881 0.0376515
203 1 0.399651 0.0397989 0.0353288
23302 1 0.408247 0.480798 0.0277148
2224 1 0.456941 0.0898134 0.0385337
12103 1 0.476982 0.00995918 0.0298861
9686 1 0.531396 0.129796 0.0355999
453 1 0.541553 0.0721481 0.0298787
23135 1 0.787695 0.0753842 0.00180622
3048 1 0.604544 0.0818644 0.0328528
12340 1 0.722812 0.481911 0.0131766
14877 1 0.655082 0.0512945 0.037703
12830 1 0.618949 0.0094406 0.0301866
15048 1 0.826605 0.0886725 0.0359401
21335 1 0.888211 0.00532106 0.0253297
8902 1 0.320662 0.112149 0.0015202
10231 1 0.892803 0.0432468 0.0345374
13555 1 0.885483 0.10316 0.0392919
494 1 0.0746579 0.202958 0.0320093
23132 1 0.57587 0.48836 0.00755242
21472 1 0.126783 0.137308 0.035586
10307 1 0.150615 0.229355 0.0351245
13933 1 0.237693 0.224105 0.0314342
23315 1 0.245575 0.229238 0.0383814
23278 1 0.316718 0.191124 0.0282587
23426 1 0.298478 0.153435 0.0404905
9374 1 0.388641 0.14844 0.0280931
10268 1 0.476162 0.175631 0.0326716
21503 1 0.430588 0.194205 0.0239864
13288 1 0.398555 0.230103 0.0308345
13075 1 0.322499 0.221783 0.0359115
23427 1 0.0392314 0.459851 0.00457828
14686 1 0.552964 0.240375 0.0318301
13966 1 0.478331 0.268209 0.0305198
14348 1 0.271003 0.38557 0.0392006
10377 1 0.626991 0.237551 0.0272382
2016 1 0.590927 0.185628 0.0356073
12672 1 0.552005 0.146799 0.0290108
14532 1 0.667073 0.226954 0.0340921
683 1 0.912767 0.03056 0.00678007
23298 1 0.665064 0.128332 0.0364301
2275 1 0.508884 0.48972 0.0361223
23955 1 0.772391 0.234792 0.0309194
10777 1 0.747791 0.107097 0.0364708
9910 1 0.817916 0.232462 0.0367906
9963 1 0.810786 0.163416 0.0342268
13433 1 0.891064 0.124846 0.0330682
12533 1 0.959364 0.156663 0.0381948
14311 1 0.907624 0.206164 0.0335578
13752 1 0.866393 0.180192 0.0395747
2669 1 0.0880146 0.32372 0.0279365
13409 1 0.999098 0.204356 0.032984
22110 1 0.0674233 0.279883 0.0350977
11977 1 0.176247 0.369717 0.0310763
825 1 0.110394 0.347383 0.0358678
23457 1 0.237757 0.436371 0.029459
11443 1 0.121379 0.429201 0.0338117
11442 1 0.829781 0.475014 0.0391272
22983 1 0.317466 0.317984 0.0362198
12417 1 0.244 0.373315 0.0331139
15039 1 0.354096 0.388394 0.0400459
2695 1 0.668152 0.401307 0.0415056
9796 1 0.4213 0.395265 0.0367035
11205 1 0.38316 0.313382 0.038454
13378 1 0.703099 0.425576 0.0329211
14487 1 0.475882 0.32844 0.0369269
9995 1 0.397927 0.333355 0.031912
13769 1 0.597794 0.284999 0.0370084
12928 1 0.543657 0.333767 0.032152
3196 1 0.663731 0.33336 0.0366328
14836 1 0.731935 0.280557 0.0379387
9770 1 0.772103 0.475412 0.0329795
13113 1 0.254444 0.0992208 0.0387639
1904 1 0.811803 0.322416 0.0375961
13299 1 0.879836 0.278347 0.0362866
14190 1 0.899235 0.365545 0.0323211
210 1 0.918073 0.290582 0.0297465
15432 1 0.973606 0.278333 0.0355359
13210 1 0.989401 0.488805 0.0373077
29 1 0.774331 0.397515 0.0316836
621 1 0.046538 0.439096 0.0360371
13014 1 0.98525 0.49719 0.0291744
12483 1 0.175248 0.379077 0.0386055
22030 1 0.0713676 0.485483 0.0292245
12282 1 0.568448 0.367798 0.0390555
14142 1 0.169778 0.302957 0.0375293
11720 1 0.738488 0.381673 0.0380416
13799 1 0.197503 0.457315 0.0363723
2366 1 0.127875 0.0858414 0.0413227
3321 1 0.376379 0.45032 0.0343192
1589 1 0.283694 0.454532 0.0358033
11653 1 0.183602 0.138054 0.04064
619 1 0.5917 0.484141 0.0361476
12126 1 0.536879 0.414058 0.032618
14958 1 0.495548 0.399564 0.037823
22188 1 0.641559 0.399909 0.0283727
2547 1 0.42593 0.227164 0.0361662
12931 1 0.617572 0.400606 0.0345827
1565 1 0.74315 0.482532 0.0391108
14623 1 0.663718 0.268051 0.0416353
3049 1 0.940169 0.0260248 0.0403477
23473 1 0.326485 0.0612255 0.0385938
11646 1 0.277657 0.0496005 0.0185136
10340 1 0.797623 0.153972 0.0410131
193 1 0.453031 0.273274 0.0414404
23174 1 0.127048 0.443944 0.0405346
13641 1 0.0262233 0.0984488 0.00051098
22771 1 0.492968 0.405621 0.000196904
10992 1 0.988202 0.491865 5.22471e-05
23483 1 0.0945922 0.138909 0.0458529
23126 1 0.0171799 0.0915696 0.0472264
12264 1 0.114213 0.0865008 0.0504462
428 1 0.17068 0.149184 0.0473263
2321 1 0.377856 0.0756051 0.0807684
12294 1 0.0855036 0.0491316 0.0458911
9745 1 0.239372 0.106629 0.0460326
14507 1 0.226903 0.179245 0.0438021
2193 1 0.186119 0.0341593 0.0521837
10046 1 0.319482 0.0818466 0.0457909
15072 1 0.677995 0.480508 0.0535265
22080 1 0.373751 0.0939222 0.0501611
13685 1 0.0432309 0.48168 0.0524184
21937 1 0.462062 0.119359 0.0453411
14585 1 0.51509 0.167619 0.0466874
823 1 0.520856 0.0643634 0.0490764
12918 1 0.589433 0.0630067 0.0459665
10326 1 0.378872 0.471833 0.059132
12946 1 0.666422 0.144701 0.0487043
9372 1 0.378887 0.185913 0.0418297
23159 1 0.656086 0.0340895 0.0444381
12970 1 0.867897 0.120772 0.0453412
9767 1 0.841692 0.490976 0.0814217
14611 1 0.844234 0.0356163 0.0499147
22932 1 0.8105 0.113064 0.0506745
160 1 0.770629 0.0529137 0.0536086
15477 1 0.960918 0.105778 0.0435257
1643 1 0.940216 0.11357 0.0494409
2290 1 0.69298 0.10833 0.042893
14773 1 0.234255 0.467214 0.0625747
9138 1 0.0887441 0.216995 0.0460623
10302 1 0.0103515 0.160786 0.0430983
12290 1 0.527057 0.120235 0.0426529
12779 1 0.173605 0.227432 0.041804
2636 1 0.169574 0.235148 0.0489019
325 1 0.258451 0.189199 0.0573862
12432 1 0.246535 0.181375 0.0508031
13821 1 0.818672 0.0131309 0.0685759
680 1 0.327977 0.170159 0.0477194
966 1 0.372365 0.253785 0.0465862
23326 1 0.456941 0.226434 0.0455259
14222 1 0.530676 0.249919 0.0479106
1720 1 0.743508 0.192603 0.0825179
11394 1 0.584332 0.152893 0.0489924
997 1 0.610216 0.225951 0.0485199
21702 1 0.637579 0.19665 0.0418026
13901 1 0.552278 0.0207793 0.0689962
48 1 0.695465 0.214586 0.0465141
20910 1 0.776096 0.193392 0.047952
13145 1 0.754802 0.114945 0.0464964
13717 1 0.93069 0.179126 0.0450946
22272 1 0.218078 0.464413 0.0425351
2766 1 0.785875 0.261256 0.0436107
13690 1 0.991636 0.17285 0.0499248
23866 1 0.324777 0.465542 0.0788115
13283 1 0.994168 0.282474 0.0825665
23496 1 0.101439 0.295619 0.0474957
13582 1 0.0890833 0.362252 0.041647
21355 1 0.141454 0.387166 0.0472508
11825 1 0.0378516 0.411552 0.0426407
2776 1 0.304026 0.453539 0.0433247
22628 1 0.00965953 0.0117141 0.0435628
2325 1 0.154699 0.317379 0.0434577
12416 1 0.202637 0.385136 0.0446687
22041 1 0.773276 0.125613 0.0793932
9092 1 0.299673 0.310826 0.0496559
12120 1 0.252092 0.263219 0.0473367
142 1 0.309773 0.23712 0.0511647
13625 1 0.313562 0.309516 0.0428519
2067 1 0.390719 0.32765 0.0448788
15132 1 0.751165 0.469771 0.0731103
23371 1 0.518696 0.329418 0.0435016
14090 1 0.452365 0.30544 0.0486715
11436 1 0.564228 0.311655 0.0503659
21688 1 0.689159 0.0366237 0.0519942
9132 1 0.579015 0.26958 0.0433306
23548 1 0.529208 0.399343 0.047454
9729 1 0.605007 0.351621 0.0456696
3536 1 0.619891 0.370278 0.0526519
14483 1 0.956937 0.47376 0.0595711
2518 1 0.713658 0.322441 0.0432358
21556 1 0.655539 0.291277 0.0488476
2585 1 0.766305 0.345803 0.0492689
11702 1 0.745603 0.272973 0.0499533
21409 1 0.0774972 0.0150522 0.0513465
23864 1 0.89355 0.332373 0.0475093
9 1 0.849705 0.404383 0.0439555
12421 1 0.00766041 0.239389 0.0457428
9272 1 0.906831 0.255014 0.0491811
21500 1 0.952876 0.300027 0.0443464
22747 1 0.44186 0.0242134 0.0433349
1578 1 0.0923058 0.447785 0.0467016
2112 1 0.117723 0.460446 0.055136
712 1 0.521981 0.0203243 0.04353
1711 1 0.172878 0.485894 0.0476097
23512 1 0.248604 0.443742 0.0491264
692 1 0.350353 0.447467 0.0530002
11361 1 0.355856 0.0182774 0.0506033
9207 1 0.814909 0.446093 0.0765136
12746 1 0.396756 0.436338 0.0464061
14145 1 0.331468 0.38946 0.0477521
21030 1 0.401752 0.392525 0.0518287
11732 1 0.475406 0.44322 0.0493814
15323 1 0.225943 0.376768 0.0824966
12980 1 0.516199 0.462979 0.0426493
23323 1 0.576842 0.440473 0.0530727
231 1 0.0841498 0.0110316 0.0772737
22020 1 0.459812 0.198646 0.080469
23484 1 0.833674 0.0080121 0.0562168
14371 1 0.75754 0.412781 0.0443858
23375 1 0.851507 0.477317 0.0466919
15216 1 0.904914 0.419783 0.0503885
21898 1 0.3608 0.000810754 0.076493
855 1 0.612265 0.49609 0.0703924
13911 1 0.927219 0.491129 0.0449252
14356 1 0.363559 0.00780562 0.0436874
21838 1 0.954965 0.384095 0.0448416
1038 1 0.04464 0.0867204 0.0571601
1974 1 0.0956679 0.366736 0.0808489
15061 1 0.132139 0.109239 0.0580492
3379 1 0.640585 0.0201192 0.0582588
23479 1 0.996495 0.0333822 0.05199
23661 1 0.193716 0.114777 0.0526491
13007 1 0.194716 0.0427778 0.0590833
1553 1 0.263199 0.0493564 0.062834
15372 1 0.30717 0.0481223 0.0569884
21160 1 0.270727 0.0370192 0.0513592
13823 1 0.255274 0.10991 0.0581017
10554 1 0.357019 0.10876 0.0582412
10288 1 0.282456 0.115559 0.052424
14668 1 0.79019 0.379767 0.0782143
14498 1 0.453158 0.11175 0.052714
8916 1 0.44708 0.104877 0.0591509
508 1 0.507487 0.0633709 0.0577103
13470 1 0.412037 0.0469036 0.0561628
2054 1 0.570541 0.0286698 0.0545361
23613 1 0.244079 0.0314071 0.0432929
2309 1 0.592093 0.131062 0.0581623
1610 1 0.615159 0.0865236 0.0520401
510 1 0.893076 0.0190406 0.0709607
1488 1 0.825818 0.146879 0.0568397
12695 1 0.688733 0.0917256 0.0569953
11342 1 0.756805 0.026059 0.0598615
21879 1 0.745667 0.0342361 0.0474258
13517 1 0.835017 0.066652 0.0604583
2531 1 0.889462 0.0891408 0.0544081
23417 1 0.924885 0.0442263 0.0494634
13198 1 0.953366 0.0487679 0.0593725
2395 1 0.798112 0.055478 0.0438753
14700 1 0.0923444 0.209174 0.0584959
9684 1 0.0590044 0.224178 0.0519977
10563 1 0.0652944 0.137301 0.0517202
2493 1 0.0543485 0.14684 0.0611769
23052 1 0.144202 0.188973 0.0533156
9996 1 0.20707 0.113726 0.0649105
12309 1 0.177296 0.168161 0.0585708
23498 1 0.254787 0.186093 0.0641936
1893 1 0.224945 0.261495 0.0540455
13277 1 0.285893 0.300666 0.0558509
14014 1 0.246816 0.258883 0.0607997
21664 1 0.414754 0.168967 0.0557935
9292 1 0.307268 0.132221 0.0627518
22908 1 0.401507 0.188976 0.0493872
9591 1 0.331865 0.169437 0.0539546
340 1 0.396581 0.242075 0.0558384
354 1 0.479876 0.18433 0.0526371
21184 1 0.550218 0.20192 0.0539856
14395 1 0.456748 0.226133 0.0600277
11094 1 0.512768 0.148153 0.0593984
1168 1 0.534686 0.116196 0.0530463
1755 1 0.634671 0.162404 0.0547093
2671 1 0.602373 0.208872 0.059978
11937 1 0.734758 0.131019 0.052979
20671 1 0.698638 0.227512 0.0534724
11641 1 0.7988 0.275809 0.0544851
11761 1 0.771657 0.204543 0.0568801
13728 1 0.69516 0.174332 0.0594808
623 1 0.849284 0.186128 0.0459723
9874 1 0.924359 0.201406 0.0609697
3357 1 0.975429 0.110858 0.0552863
9882 1 0.00919843 0.181089 0.0567004
1322 1 0.936049 0.23629 0.0658601
9511 1 0.919433 0.17638 0.053562
2333 1 0.0434127 0.312266 0.052619
14564 1 0.0268455 0.328837 0.0466087
2948 1 0.985014 0.270621 0.0606295
11614 1 0.121619 0.268006 0.054314
10327 1 0.203228 0.322987 0.0499656
2400 1 0.156523 0.250903 0.0601575
22768 1 0.274532 0.360428 0.0605706
23999 1 0.363739 0.311687 0.053083
12334 1 0.356702 0.308159 0.0601273
14645 1 0.424847 0.322184 0.05661
342 1 0.326563 0.377899 0.0562954
12823 1 0.384788 0.397174 0.0615007
23623 1 0.493522 0.360226 0.0599068
11126 1 0.485448 0.355518 0.0529442
9315 1 0.552881 0.293747 0.0571955
562 1 0.47212 0.259553 0.0534477
14950 1 0.603992 0.253559 0.0543932
14124 1 0.626155 0.325701 0.0587364
2169 1 0.564938 0.382637 0.0569004
22906 1 0.683429 0.382162 0.0480439
419 1 0.673772 0.246194 0.0600691
206 1 0.697516 0.310822 0.05456
20934 1 0.713632 0.320835 0.0625187
9285 1 0.77577 0.351509 0.0557796
9860 1 0.824511 0.284094 0.0487494
1208 1 0.837825 0.209029 0.0522265
12257 1 0.861726 0.331082 0.0537432
1617 1 0.976976 0.262668 0.0520386
12358 1 0.951948 0.335361 0.0519874
23984 1 0.916249 0.271279 0.0563147
11221 1 0.996301 0.343399 0.0574712
11060 1 0.0819023 0.395419 0.0590793
14410 1 0.0512299 0.391676 0.0503032
22002 1 0.185575 0.42211 0.0525045
13863 1 0.121105 0.345626 0.053755
3395 1 0.187156 0.405449 0.058703
11970 1 0.0322205 0.495982 0.0426622
9150 1 0.206989 0.318776 0.0573481
10925 1 0.249013 0.369355 0.0527936
2386 1 0.27823 0.437462 0.0571145
13432 1 0.312216 0.455199 0.0630183
22655 1 0.225238 0.390334 0.0653368
1226 1 0.42887 0.487073 0.0529387
11372 1 0.436219 0.417031 0.056833
23118 1 0.150926 0.0873903 0.0827457
12787 1 0.498635 0.457586 0.0556022
21283 1 0.534968 0.427844 0.062218
13070 1 0.447151 0.465357 0.0627825
22031 1 0.457418 0.0635456 0.0812674
10390 1 0.625587 0.427343 0.04782
12431 1 0.6902 0.390334 0.0557014
13978 1 0.618415 0.456963 0.0586315
2471 1 0.609616 0.399042 0.0641335
1422 1 0.757514 0.424599 0.0510632
1373 1 0.732196 0.446579 0.0583712
3022 1 0.824391 0.473606 0.0529551
22613 1 0.830542 0.392143 0.0505051
477 1 0.821929 0.410358 0.0569688
2641 1 0.89173 0.462405 0.0581086
15389 1 0.969979 0.330101 0.0769939
9180 1 0.979785 0.415926 0.0539741
12620 1 0.902266 0.379692 0.0561354
22322 1 0.0302777 0.455024 0.0593639
2041 1 0.0505081 0.117329 0.0673863
13673 1 0.00187468 0.0571396 0.0721023
13569 1 0.0976974 0.0696826 0.0618418
10977 1 0.14511 0.0406701 0.0726581
1832 1 0.545218 0.0665907 0.079556
23949 1 0.164574 0.0437212 0.0647972
2907 1 0.305422 0.0386512 0.0679297
12366 1 0.939672 0.396595 0.074798
13840 1 0.216797 0.0694839 0.0701056
1384 1 0.358949 0.0520424 0.062779
1009 1 0.405287 0.101352 0.0668097
9095 1 0.39193 0.0160763 0.0700609
1926 1 0.397808 0.401137 0.0802073
22474 1 0.500621 0.0910565 0.0655388
14244 1 0.47574 0.0320292 0.0693385
23011 1 0.549265 0.0868715 0.0720865
2370 1 0.432312 0.0239436 0.0622814
11426 1 0.570972 0.0688914 0.061264
645 1 0.605692 0.0710273 0.0681827
2010 1 0.673825 0.387578 0.0805762
506 1 0.701067 0.0411548 0.0646589
21780 1 0.783972 0.0719753 0.065661
13795 1 0.953898 0.0525389 0.0664877
14191 1 0.892489 0.0174307 0.0630295
11788 1 0.919644 0.100409 0.0742505
23877 1 0.0217719 0.0643299 0.0626955
1278 1 0.382444 0.104959 0.0421825
22136 1 0.138413 0.176374 0.0719395
11942 1 0.113528 0.158216 0.0648639
612 1 0.0205488 0.20031 0.0646212
2586 1 1.00067 0.256698 0.0726174
14944 1 0.226586 0.164019 0.0705001
12558 1 0.139728 0.101263 0.0686295
13149 1 0.192292 0.200697 0.0769301
2138 1 0.277119 0.11657 0.0679514
1753 1 0.256307 0.25329 0.0696298
14366 1 0.323221 0.219778 0.0598116
3116 1 0.342116 0.286472 0.0727789
2731 1 0.349079 0.122682 0.0728621
9184 1 0.331774 0.206774 0.0675757
15286 1 0.390959 0.174153 0.0624816
11595 1 0.48471 0.177413 0.0655319
9505 1 0.380991 0.248556 0.0635335
2417 1 0.5221 0.282693 0.0687709
21314 1 0.566706 0.151466 0.0649808
369 1 0.644502 0.114299 0.0630097
13092 1 0.531881 0.241812 0.0625593
13577 1 0.576521 0.228704 0.0680659
96 1 0.619371 0.14746 0.0703793
11491 1 0.652845 0.183125 0.0652911
22016 1 0.759327 0.114712 0.0594896
1319 1 0.765561 0.222078 0.0642333
13636 1 0.726215 0.14259 0.0655847
14653 1 0.894703 0.117375 0.0614536
21548 1 0.855172 0.242299 0.0646701
9243 1 0.848232 0.223078 0.0588707
10567 1 0.823851 0.14671 0.0631681
13595 1 0.895878 0.171311 0.0670746
22631 1 0.970582 0.134821 0.0620602
10333 1 0.968032 0.126608 0.068956
12438 1 0.898076 0.246793 0.0715842
9750 1 0.0726136 0.29914 0.059243
14646 1 0.101608 0.237941 0.0657358
9953 1 0.0302277 0.336605 0.0737576
14210 1 0.181242 0.216411 0.0670561
2922 1 0.129396 0.310377 0.0677596
8940 1 0.215356 0.30432 0.0652788
14066 1 0.193147 0.345844 0.0716687
10672 1 0.179153 0.266474 0.0721817
12857 1 0.30741 0.29967 0.0653459
15435 1 0.273012 0.33422 0.0705482
1813 1 0.401588 0.326682 0.0651484
10980 1 0.459024 0.389626 0.0651813
845 1 0.446822 0.335659 0.0712198
79 1 0.471697 0.300581 0.0625097
296 1 0.518655 0.385855 0.0697872
12254 1 0.55012 0.354432 0.0638208
1935 1 0.516227 0.310112 0.0761753
9381 1 0.611041 0.283037 0.0635955
10398 1 0.654318 0.254455 0.0714119
13698 1 0.656798 0.330568 0.0680674
10369 1 0.585179 0.33012 0.0708026
22692 1 0.69885 0.261339 0.0664913
21523 1 0.802928 0.310234 0.0647623
15009 1 0.841254 0.308327 0.0596259
13812 1 0.757116 0.27178 0.060245
21912 1 0.919967 0.316304 0.0622823
21988 1 0.806982 0.25313 0.0700529
10495 1 0.874397 0.308533 0.067979
14717 1 0.955444 0.311553 0.0684849
2298 1 0.0363219 0.291584 0.068173
11226 1 0.0132446 0.342034 0.0633486
10179 1 0.126069 0.453911 0.0634196
2556 1 0.0462614 0.450679 0.0658091
22902 1 0.0211077 0.458098 0.0727553