ITEM: TIMESTEP
6566601
ITEM: NUMBER OF ATOMS
24000
ITEM: BOX BOUNDS pp pp pp
-2.0834916256085023e-03 3.3247289394437317e+01
-2.0834916256085023e-03 3.3247289394437317e+01
-1.0802998498407419e+00 4.0002277068355932e+02
ITEM: ATOMS id type xs ys zs
11974 1 0.0583429 0.00643062 0.0148691
9847 1 0.0490942 0.0768621 0.0107511
13044 1 0.225796 0.000367684 0.0150145
3099 1 0.150176 0.0774613 0.00594815
20960 1 0.17365 0.153765 0.00399806
281 1 0.222396 0.0782963 0.0109604
11630 1 0.148092 0.0295042 0.0203737
11595 1 0.421203 0.45847 0.0219378
1239 1 0.239963 0.0660233 0.00369941
14573 1 0.357413 0.0333219 0.00661332
22735 1 0.442276 0.0729048 0.0084351
20658 1 0.403419 0.0333983 0.00194439
12023 1 0.974604 0.00220502 0.000743827
23970 1 0.488606 0.0664065 0.00425901
10911 1 0.814596 0.148214 0.00129221
10454 1 0.679036 0.0452865 0.0051896
13565 1 0.748618 0.0916252 0.00355306
13464 1 0.58367 0.0215872 0.00624565
10659 1 0.747502 0.0135166 0.00767121
2308 1 0.0840425 0.00563665 0.000806066
12206 1 0.715142 0.0244482 0.000672449
1599 1 0.773035 0.0841999 0.0103383
13002 1 0.792295 0.0211392 0.0139314
3350 1 0.859069 0.146338 0.00738752
10850 1 0.829897 0.0723317 0.00457192
12385 1 0.916439 0.0910807 0.00975125
9588 1 0.981845 0.0495976 0.00747684
21969 1 0.858621 0.0665025 0.0130256
9948 1 0.988225 0.101763 0.00153401
3114 1 0.257087 0.00356821 0.00915192
12840 1 0.643796 0.217518 0.00223732
404 1 0.0204363 0.140709 0.00720335
22113 1 0.0681834 0.0754094 0.0043458
1328 1 0.0598739 0.217388 0.00664058
12711 1 0.108288 0.151284 0.00782108
3007 1 0.177356 0.156327 0.010114
1904 1 0.218085 0.214906 0.00688073
9044 1 0.147525 0.238612 0.00574538
22532 1 0.267663 0.223944 0.0130487
1188 1 0.262939 0.144988 0.00652307
14012 1 0.30951 0.211321 0.00633511
2690 1 0.365834 0.141004 0.00678344
23594 1 0.276455 0.500649 0.0110972
13752 1 0.393287 0.249398 0.00624807
14587 1 0.543011 0.120234 0.0062442
11601 1 0.566897 0.190002 0.00286458
14230 1 0.457224 0.142205 0.00661076
401 1 0.676892 0.132663 0.00432207
1719 1 0.598642 0.121257 0.00168623
360 1 0.719785 0.200756 0.00128085
22050 1 0.921681 0.136775 0.00460102
2067 1 0.757116 0.162447 0.00698167
23457 1 0.860873 0.207778 0.00127008
21165 1 0.977747 0.196617 0.00398456
14655 1 0.933964 0.17034 0.0103725
2193 1 0.266998 0.482496 0.0383255
1370 1 0.0237084 0.345622 0.00738353
2089 1 0.00697816 0.269497 0.0042893
8947 1 0.208124 0.285556 0.00945134
10399 1 0.115402 0.302639 0.00645589
13097 1 0.241148 0.355425 0.00353754
23497 1 0.157765 0.357063 0.0114897
9537 1 0.311089 0.0924704 0.00330132
1884 1 0.25659 0.260584 0.00312168
10488 1 0.294372 0.30078 0.00943691
21345 1 0.632774 0.479622 0.0268964
9316 1 0.318825 0.373437 0.00613309
23188 1 0.46394 0.288339 0.00741967
15180 1 0.494525 0.349474 0.00301212
9054 1 0.490886 0.210887 0.00431359
21793 1 0.76082 0.0243017 0.0270495
11608 1 0.545984 0.271147 0.00603261
14904 1 0.625672 0.251087 0.00888109
3509 1 0.924107 0.327951 0.0393438
14251 1 0.593902 0.330304 0.00477981
2528 1 0.146681 0.439729 0.00149027
21122 1 0.681572 0.314438 0.00559632
13568 1 0.780725 0.259973 0.00566245
22989 1 0.703894 0.236905 0.00785558
23714 1 0.783547 0.344303 0.00484163
21831 1 0.830512 0.29096 0.0113947
12433 1 0.852528 0.286535 0.00319525
11304 1 0.799381 0.00538895 0.000507862
12452 1 0.911187 0.241151 0.00574517
453 1 0.974063 0.315049 0.0109713
22002 1 0.844418 0.487732 0.0286604
15165 1 0.997908 0.222542 0.0103685
23482 1 0.00908523 0.432231 0.00478219
862 1 0.969163 0.362562 0.00251057
9964 1 0.0308012 0.421123 0.0109525
1341 1 0.571551 0.00825475 0.0277699
13641 1 0.187321 0.39506 0.00630407
989 1 0.226031 0.464604 0.00201382
23378 1 0.193495 0.432798 0.013478
2928 1 0.54475 0.4346 0.0415414
9957 1 0.271197 0.435261 0.00766891
23794 1 0.300714 0.493074 0.0036828
13198 1 0.354511 0.39489 0.0019527
9845 1 0.361621 0.453496 0.00674778
23144 1 0.396515 0.320655 0.0043313
14210 1 0.444991 0.399076 0.00560013
13135 1 0.559932 0.400632 0.00436929
13246 1 0.0927993 0.372742 0.00213536
1609 1 0.659093 0.465551 0.00401625
58 1 0.579656 0.45536 0.00992115
21896 1 0.659973 0.37263 0.00184092
22374 1 0.648709 0.412207 0.00934062
22564 1 0.0854441 0.266501 0.00123107
22246 1 0.804906 0.464118 0.0103577
2458 1 0.726966 0.395528 0.00466697
9138 1 0.951333 0.128251 0.0397076
14439 1 0.856947 0.424772 0.00469054
462 1 0.785768 0.458358 0.00371432
12200 1 0.950566 0.405799 0.00927638
22375 1 0.437244 0.487329 0.00911314
29 1 0.908045 0.0475504 0.00321223
1244 1 0.921979 0.470802 0.00531613
11646 1 0.896711 0.345618 0.00616314
13505 1 0.36781 0.388952 0.0399907
13081 1 0.124577 0.0820041 0.0133158
21488 1 0.896109 0.395405 0.0403709
1857 1 0.991349 0.06135 0.0205623
12124 1 0.251987 0.347917 0.0397857
13779 1 0.193606 0.0741579 0.0168624
624 1 0.143046 0.100661 0.0229737
21994 1 0.307417 0.0776585 0.00995255
13675 1 0.298182 0.153623 0.0118685
10046 1 0.293734 0.0344319 0.0170057
15272 1 0.264733 0.103494 0.0198276
22779 1 0.376761 0.0365384 0.0128301
470 1 0.379693 0.0387213 0.0195003
11218 1 0.451123 0.0529559 0.0166823
14710 1 0.54778 0.0526273 0.0171461
22750 1 0.522685 0.0559536 0.0114379
11211 1 0.488789 0.141112 0.0132389
9511 1 0.611342 0.0884857 0.00893252
14714 1 0.60443 0.0128272 0.0117761
9963 1 0.577067 0.125731 0.0136465
21210 1 0.632542 0.0633807 0.0164627
9115 1 0.415592 0.476235 0.037453
2633 1 0.514085 0.140319 0.000521637
12074 1 0.717137 0.0358993 0.0149262
2224 1 0.842972 0.109255 0.0206881
23442 1 0.789536 0.106898 0.015685
21038 1 0.448815 0.273713 0.000553663
864 1 0.417219 0.103062 0.0017748
23491 1 0.949705 0.0462835 0.014136
2359 1 0.918757 0.112853 0.0180393
14584 1 0.0584698 0.169598 0.0206157
23427 1 0.124544 0.226746 0.0110049
14410 1 0.053936 0.236218 0.0164288
14784 1 0.0775787 0.0981776 0.0187854
562 1 0.132974 0.153834 0.0159877
23804 1 0.19132 0.23154 0.0150424
21652 1 0.190304 0.172372 0.0213094
21554 1 0.136597 0.232329 0.0199986
21408 1 0.34778 0.217317 0.0130563
905 1 0.223677 0.151138 0.0148048
11289 1 0.224837 0.315457 0.0156049
23099 1 0.277696 0.174052 0.0187075
9610 1 0.410477 0.131046 0.0131696
12589 1 0.337919 0.104231 0.0165135
21644 1 0.361921 0.183418 0.0190442
21572 1 0.441662 0.216315 0.010124
11614 1 0.4582 0.198449 0.0176439
2450 1 0.540019 0.174709 0.0172516
21743 1 0.402618 0.250645 0.0178956
21095 1 0.622898 0.178064 0.00810524
12130 1 0.5887 0.225077 0.0144248
14857 1 0.645888 0.168559 0.0160478
23373 1 0.762726 0.247974 0.0124353
2096 1 0.699527 0.106276 0.0111533
1867 1 0.720117 0.203807 0.0201127
9860 1 0.707708 0.117574 0.0172297
10780 1 0.768866 0.268248 0.0180807
1014 1 0.831207 0.212921 0.00857123
15179 1 0.757173 0.177899 0.0134591
1046 1 0.87168 0.165159 0.0140826
164 1 0.836296 0.243041 0.015454
10574 1 0.982899 0.124463 0.014295
14888 1 0.983013 0.194782 0.0170858
11720 1 0.0676391 0.139607 0.0134013
9861 1 0.900155 0.25119 0.0118773
12166 1 0.0529756 0.282766 0.0113811
13760 1 0.011361 0.263208 0.0216075
12691 1 0.99048 0.36958 0.0156185
10223 1 0.0699552 0.365486 0.0130676
10009 1 0.134027 0.296077 0.014632
13504 1 0.0650691 0.311446 0.0183931
2874 1 0.152726 0.306808 0.021249
9035 1 0.315994 0.289163 0.0159821
448 1 0.252407 0.366378 0.0113368
12976 1 0.245448 0.258634 0.0204945
12256 1 0.299295 0.346135 0.0202047
13364 1 0.338513 0.370394 0.0139862
12267 1 0.370409 0.301798 0.0114911
3022 1 0.412233 0.266616 0.0255619
12938 1 0.449677 0.324503 0.0143423
21075 1 0.379577 0.321247 0.018828
14877 1 0.538599 0.183472 0.00947904
1890 1 0.507357 0.256712 0.0144927
2008 1 0.53365 0.335176 0.0165313
11786 1 0.503856 0.355669 0.00979947
14968 1 0.575087 0.291898 0.0117126
14836 1 0.652276 0.321662 0.0126092
844 1 0.73449 0.318196 0.0109031
21769 1 0.683292 0.237195 0.0149199
1758 1 0.701839 0.305648 0.0179838
9909 1 0.874162 0.295314 0.0184011
10353 1 0.83312 0.375478 0.0110035
15432 1 0.901957 0.396216 0.0168836
10867 1 0.924312 0.268249 0.0227968
10859 1 0.913995 0.32147 0.0136803
10583 1 0.982555 0.273085 0.0159865
1801 1 0.94915 0.333754 0.0194311
1690 1 0.0496917 0.390658 0.0200682
21141 1 0.0644399 0.449493 0.0160588
12108 1 0.109283 0.416472 0.00858836
21702 1 0.206934 0.376902 0.0191897
1505 1 0.126995 0.391022 0.0177968
12533 1 0.121613 0.481616 0.0126011
2934 1 0.329688 0.280268 0.00367288
22915 1 0.289514 0.421889 0.0157553
11606 1 0.367034 0.46943 0.0127203
9255 1 0.409901 0.393122 0.0121329
11413 1 0.616502 0.411703 0.0379669
206 1 0.477623 0.402573 0.0173027
21732 1 0.56165 0.43794 0.0162045
982 1 0.499519 0.426055 0.011097
21910 1 0.157541 0.00405269 0.033006
10183 1 0.569923 0.375188 0.0115627
14928 1 0.609718 0.372454 0.0169763
11193 1 0.638259 0.465811 0.0156965
12809 1 0.761006 0.393598 0.0123283
1892 1 0.704023 0.457118 0.0110898
21323 1 0.696508 0.386198 0.0170637
1496 1 0.753659 0.456134 0.016099
3269 1 0.882029 0.427418 0.0114551
2108 1 0.796802 0.333979 0.0163279
12297 1 0.102619 0.181998 0.00150637
12806 1 0.987727 0.483469 0.0182671
298 1 0.979047 0.496713 0.0099731
2941 1 0.96184 0.441679 0.0140108
21310 1 0.887556 0.473928 0.0175338
22599 1 0.78938 0.0527118 0.020348
13853 1 0.030188 0.0120185 0.0310352
13028 1 0.0532244 0.0357408 0.0227516
2066 1 0.00674409 0.0770391 0.028903
1755 1 0.078904 0.110213 0.027124
2512 1 0.116196 0.0371023 0.0272941
11121 1 0.208774 0.0850326 0.0238079
9448 1 0.302495 0.015879 0.0232834
11977 1 0.341541 0.0870282 0.0245315
11727 1 0.248809 0.0476424 0.0341545
14491 1 0.172112 0.319028 0.00307867
428 1 0.346072 0.0337828 0.0301126
23871 1 0.430575 0.0654836 0.0241457
2942 1 0.45001 0.0593723 0.0308315
23317 1 0.493149 0.377671 0.0387421
902 1 0.521706 0.0690287 0.0259722
22807 1 0.962214 0.386659 0.0354582
1267 1 0.603617 0.0928101 0.0276505
13645 1 0.593299 0.0232181 0.0216617
22642 1 0.711012 0.0926902 0.0265532
21327 1 0.417299 0.20167 0.00127865
21912 1 0.657367 0.104296 0.0224117
10914 1 0.773224 0.114949 0.0229593
22997 1 0.706252 0.044344 0.0221837
9889 1 0.692865 0.177988 0.0251111
9837 1 0.859027 0.160433 0.0247992
716 1 0.846686 0.0585717 0.0254551
13873 1 0.917345 0.119045 0.0257773
23590 1 0.914357 0.0343801 0.0214844
10309 1 0.880546 0.129035 0.03101
12122 1 0.0198673 0.224987 0.0334092
14203 1 0.0196093 0.183455 0.0285506
11394 1 0.104993 0.202086 0.0322927
13761 1 0.10134 0.174988 0.0255971
14090 1 0.16927 0.144677 0.0281907
23068 1 0.157747 0.229934 0.0270718
3255 1 0.181763 0.219604 0.0338013
14089 1 0.265777 0.0724679 0.0277607
73 1 0.244775 0.159401 0.0270585
1193 1 0.346533 0.229972 0.029127
3957 1 0.298021 0.124242 0.0313564
21390 1 0.312053 0.165875 0.0247177
12702 1 0.386207 0.117717 0.0294718
2701 1 0.398895 0.185795 0.0253649
15450 1 0.408251 0.117251 0.0197244
14361 1 0.579182 0.109703 0.0211047
2314 1 0.541756 0.248121 0.0212022
10555 1 0.463361 0.136145 0.0272739
14008 1 0.488172 0.1219 0.0208492
15490 1 0.495574 0.206129 0.0309975
455 1 0.539121 0.145596 0.0316058
2855 1 0.543926 0.150309 0.0252572
9499 1 0.614801 0.187447 0.0215629
12489 1 0.625337 0.17135 0.0294475
11966 1 0.781729 0.203236 0.0267666
9519 1 0.703968 0.159364 0.0309694
11411 1 0.668449 0.255304 0.0233085
14507 1 0.791498 0.123196 0.0294328
14729 1 0.909156 0.19414 0.019197
15368 1 0.815667 0.210278 0.0327747
10815 1 0.808412 0.192324 0.0192372
13515 1 0.780252 0.286099 0.0313679
12217 1 0.983672 0.143711 0.0227076
264 1 0.877275 0.212853 0.0300786
1183 1 0.943865 0.202104 0.0267545
12309 1 0.968494 0.278314 0.0283359
11788 1 0.96237 0.148921 0.031618
1794 1 0.0312715 0.327208 0.0254589
11383 1 0.102058 0.343298 0.0249496
14636 1 0.0720034 0.253618 0.0251454
22683 1 0.0811014 0.280077 0.0307736
22381 1 0.0602258 0.389956 0.0336612
3117 1 0.160073 0.304857 0.0294766
23230 1 0.213068 0.330113 0.0247178
15239 1 0.148615 0.383275 0.0309861
1120 1 0.249533 0.250363 0.0280984
14716 1 0.339683 0.424032 0.0220392
12567 1 0.375179 0.358722 0.0252359
13928 1 0.467064 0.317581 0.0205151
10178 1 0.335331 0.261957 0.0222721
13221 1 0.448057 0.260374 0.0322028
13997 1 0.456676 0.354195 0.0289751
12177 1 0.490026 0.201294 0.0244939
1639 1 0.505248 0.287843 0.0265812
23126 1 0.632108 0.275375 0.0183966
13336 1 0.527837 0.370339 0.0318742
14018 1 0.604342 0.245148 0.0273493
12225 1 0.66364 0.31763 0.0282302
12931 1 0.585005 0.313804 0.0240321
12313 1 0.735402 0.279921 0.0254486
11799 1 0.703829 0.299909 0.0339647
578 1 0.652 0.356232 0.02197
1234 1 0.739077 0.364495 0.0269119
707 1 0.803671 0.314173 0.0245655
22474 1 0.846788 0.245383 0.0235079
9524 1 0.876877 0.348297 0.0230735
2273 1 0.874449 0.307174 0.0289012
2028 1 0.945912 0.343695 0.0265404
2112 1 0.00904533 0.318411 0.0323248
23391 1 0.0226111 0.471366 0.0251924
14348 1 0.0784384 0.413581 0.0274058
2127 1 0.179474 0.482031 0.0180866
22083 1 0.105777 0.462098 0.0222644
12548 1 0.171208 0.399438 0.024842
11156 1 0.266134 0.398297 0.0263932
22127 1 0.200179 0.47553 0.0249714
12895 1 0.372033 0.18625 0.0415495
14803 1 0.265757 0.444145 0.0217036
14783 1 0.310607 0.316425 0.0269163
12334 1 0.295205 0.464129 0.0296701
340 1 0.403489 0.392555 0.0184372
12257 1 0.335476 0.381812 0.0310273
11937 1 0.461807 0.394838 0.0235944
10367 1 0.398294 0.437216 0.0283728
23665 1 0.53481 0.370062 0.0236624
2387 1 0.527217 0.472506 0.0220863
142 1 0.542157 0.440527 0.0284692
1009 1 0.695628 0.43259 0.0215066
13778 1 0.623495 0.394338 0.0293925
22250 1 0.21475 0.00591336 0.0290193
21660 1 0.591664 0.423709 0.0227945
11442 1 0.76622 0.388505 0.0213825
15310 1 0.705146 0.433248 0.0284438
14154 1 0.773739 0.462659 0.0256232
21008 1 0.882472 0.00646859 0.0362523
10248 1 0.831277 0.427731 0.0181706
9436 1 0.881367 0.431819 0.0246354
22287 1 0.817801 0.399135 0.0279126
21628 1 0.659641 0.0196295 0.0264654
2131 1 0.904117 0.393103 0.0296264
12734 1 0.97511 0.410356 0.0217565
11935 1 0.0862546 0.0732202 0.0331521
10334 1 0.0321539 0.052433 0.0369131
10577 1 0.739963 0.294107 0.000420951
1903 1 0.18345 0.0801517 0.03137
14517 1 0.181415 0.065027 0.0382029
10307 1 0.975257 0.47952 0.0357931
12983 1 0.885074 0.442039 0.0341811
2950 1 0.814046 0.445249 0.0388459
13262 1 0.315678 0.0602623 0.0373455
599 1 0.261826 0.115592 0.0375161
23912 1 0.3941 0.0225456 0.0364179
21777 1 0.489142 0.101446 0.0360968
22237 1 0.397393 0.098347 0.0375597
9051 1 0.536067 0.0463177 0.0335799
2769 1 0.473277 0.0347214 0.039151
2778 1 0.576614 0.111575 0.0370755
10964 1 0.56417 0.0477046 0.0400605
931 1 0.625967 0.017726 0.032563
2054 1 0.65679 0.0491758 0.0380988
22747 1 0.746096 0.0668744 0.0336687
14356 1 0.101494 0.0914651 0.0397856
10520 1 0.728073 0.0123539 0.0391846
210 1 0.690563 0.124119 0.0383939
23514 1 0.624629 0.487001 0.0331605
21160 1 0.834728 0.0598455 0.0326192
23255 1 0.48602 0.45256 0.034329
10216 1 0.807516 0.0430932 0.0388965
23667 1 0.812582 0.140393 0.0364915
21909 1 0.880404 0.0878607 0.0380046
12844 1 0.958451 0.0726105 0.0346639
21296 1 0.920221 0.0518612 0.0303209
23690 1 0.848011 0.00697543 0.0177789
21072 1 0.171458 0.00837943 0.00322438
12919 1 0.0325227 0.142855 0.0340082
14661 1 0.0565886 0.269602 0.0384286
2794 1 0.12724 0.26776 0.0366345
2695 1 0.0790382 0.181994 0.0383574
22780 1 0.564758 0.439835 0.034613
880 1 0.225157 0.148802 0.0329489
21811 1 0.139392 0.146194 0.0354057
23463 1 0.19163 0.183183 0.0403709
45 1 0.272172 0.200864 0.0339316
22193 1 0.34003 0.15314 0.0358392
9850 1 0.304366 0.236459 0.0381217
1569 1 0.422931 0.180452 0.0336877
354 1 0.350699 0.454885 0.0344577
12407 1 0.438621 0.240986 0.0396879
1677 1 0.476401 0.171139 0.0383118
23971 1 0.574946 0.217501 0.0326823
14066 1 0.700737 0.459004 0.037238
11027 1 0.556854 0.183844 0.0393144
21930 1 0.65896 0.100589 0.031443
21418 1 0.736302 0.199107 0.0363231
23129 1 0.686519 0.237489 0.0309486
14453 1 0.645186 0.183352 0.0364507
1566 1 0.796643 0.227078 0.0402294
907 1 0.766631 0.453543 0.0322484
930 1 0.726301 0.381347 0.0386842
23761 1 0.465501 0.495068 0.0272502
14228 1 0.881667 0.181823 0.0366248
23796 1 0.989489 0.188499 0.0378292
12354 1 0.938124 0.231141 0.0332408
13900 1 0.0155984 0.342877 0.0392384
3262 1 0.176592 0.338673 0.0364362
22686 1 0.127084 0.425863 0.0364453
3558 1 0.228198 0.270269 0.0366699
10167 1 0.103634 0.347394 0.0380815
12110 1 0.301034 0.279399 0.0324968
23315 1 0.366173 0.244876 0.0349496
22406 1 0.475164 0.492713 0.0160338
14390 1 0.407746 0.315358 0.0402037
13276 1 0.323843 0.332522 0.0371702
21216 1 0.383763 0.315452 0.0317518
1553 1 0.550367 0.300312 0.0309266
2600 1 0.603767 0.258113 0.037871
12779 1 0.520183 0.254314 0.0371032
1753 1 0.475179 0.318253 0.0354729
2309 1 0.565295 0.344353 0.0384962
13009 1 0.645387 0.32436 0.0400052
1276 1 0.61298 0.31552 0.0333446
23342 1 0.702985 0.254653 0.0404752
1483 1 0.675011 0.367072 0.0341217
12043 1 0.834809 0.000598562 0.00747244
9262 1 0.773314 0.372024 0.0339587
14244 1 0.851722 0.35489 0.0356605
12927 1 0.413561 0.396053 0.0337416
1518 1 0.771609 0.312189 0.0387251
12126 1 0.860391 0.278634 0.0361674
10004 1 0.934611 0.317645 0.0337561
1434 1 0.975736 0.267946 0.0381801
23018 1 0.502757 0.464696 0.00474206
14552 1 0.998786 0.412558 0.0288443
21886 1 0.147083 0.463764 0.0301755
12409 1 0.264367 0.171487 0.000251044
15166 1 0.0358997 0.4575 0.0387227
22759 1 0.213944 0.432334 0.0310281
13378 1 0.927458 0.468378 0.0299119
557 1 0.234328 0.338766 0.0309478
13686 1 0.380795 0.500097 0.00200964
1915 1 0.209872 0.423445 0.0395503
313 1 0.275282 0.398549 0.0347174
9354 1 0.946187 0.0174392 0.0388377
2619 1 0.476973 0.48568 0.0405243
13849 1 0.900976 0.484703 0.0391493
13493 1 0.191753 0.487755 0.0353445
3536 1 0.0338935 0.482287 0.0319819
12254 1 0.289535 0.413775 0.0411719
12630 1 0.0670122 0.493555 0.00825891
1420 1 0.890743 0.228232 0.0409805
2937 1 0.0774919 0.482131 0.000376464
21402 1 0.0902784 0.0164011 0.00757707
13717 1 0.121698 0.483444 0.0411268
2976 1 0.935798 0.420195 0.000265776
23035 1 0.0335328 0.0323704 0.0511498
9238 1 0.0755007 0.0186137 0.0446156
753 1 0.20507 0.117886 0.0519491
21255 1 0.179658 0.0446618 0.0448
1280 1 0.228886 0.0569931 0.0489603
13403 1 0.27898 0.0346479 0.0537487
209 1 0.299023 0.0782145 0.0481705
9034 1 0.142275 0.134441 0.0456036
14366 1 0.486744 0.499077 0.0582937
22942 1 0.345944 0.461354 0.0673994
1776 1 0.801449 0.449995 0.0816657
1340 1 0.724134 0.177978 0.0438446
20929 1 0.395331 0.0856813 0.0493278
9532 1 0.355993 0.00723927 0.0506869
12970 1 0.356609 0.0361821 0.0434263
1720 1 0.46751 0.0771567 0.0551695
2811 1 0.521172 0.0570475 0.0462105
1517 1 0.55293 0.0346485 0.051532
1630 1 0.611526 0.0511087 0.0458693
899 1 0.958729 0.430503 0.074184
11605 1 0.751135 0.495562 0.0704554
1783 1 0.436235 0.017076 0.0445558
2635 1 0.689784 0.0751404 0.0444124
1610 1 0.798491 0.0995655 0.0512179
620 1 0.188037 0.279711 0.0419425
12050 1 0.914972 0.0790878 0.0499062
12819 1 0.853 0.0781783 0.0456884
9084 1 0.978134 0.124282 0.0476766
904 1 0.956983 0.0477994 0.0551234
10943 1 0.068222 0.0947107 0.0463259
11040 1 0.011975 0.260549 0.0439796
13397 1 0.989826 0.20565 0.0492568
15155 1 0.0438672 0.147698 0.0509336
21142 1 0.100883 0.197763 0.0488023
2776 1 0.246718 0.167428 0.0565763
2732 1 0.23403 0.177145 0.0819961
12857 1 0.230901 0.11257 0.0436964
540 1 0.209942 0.185235 0.0460919
1361 1 0.273664 0.154177 0.049876
3210 1 0.307189 0.234036 0.0473854
9235 1 0.49009 0.495708 0.082119
14470 1 0.365506 0.157608 0.0481475
852 1 0.481406 0.125718 0.048821
14646 1 0.424988 0.185368 0.0530306
2677 1 0.589179 0.206755 0.0493004
12510 1 0.573436 0.138639 0.046738
12787 1 0.514006 0.196746 0.0526644
21570 1 0.904687 0.417828 0.0786072
22020 1 0.61804 0.468158 0.0425048
11921 1 0.68272 0.208437 0.0505033
22940 1 0.646778 0.136838 0.0486041
2808 1 0.218273 0.495776 0.0431191
13241 1 0.733328 0.112235 0.0484959
439 1 0.760561 0.174039 0.0517574
22143 1 0.445267 0.0106305 0.0513143
22768 1 0.810718 0.174672 0.0462324
856 1 0.867762 0.229825 0.047445
21812 1 0.844511 0.212952 0.0530685
8870 1 0.899911 0.156934 0.0485948
22332 1 0.0403599 0.191335 0.0441169
21023 1 0.955123 0.195021 0.0436934
2247 1 0.0513231 0.340878 0.0451994
9 1 0.0706202 0.279323 0.0493295
23567 1 0.144967 0.0539214 0.0500684
14998 1 0.155898 0.241085 0.0488404
12657 1 0.196116 0.332002 0.0476399
22057 1 0.116465 0.358665 0.0497908
23159 1 0.178447 0.301896 0.0540776
10872 1 0.929117 0.0638911 0.0434064
14223 1 0.255705 0.265348 0.0438273
13366 1 0.268956 0.308488 0.0490615
403 1 0.968652 0.398178 0.0825267
11765 1 0.34634 0.288124 0.043246
1143 1 0.395269 0.232488 0.0467919
1007 1 0.432565 0.302678 0.0469184
62 1 0.377452 0.291727 0.0516491
14247 1 0.383562 0.372709 0.0476705
3321 1 0.498077 0.284651 0.0503538
1666 1 0.51681 0.340642 0.0455819
12697 1 0.919633 0.495992 0.0543792
21223 1 0.660567 0.283749 0.0461162
14233 1 0.579637 0.266431 0.044349
23375 1 0.663764 0.362442 0.0491092
13113 1 0.598375 0.365552 0.044485
9996 1 0.743155 0.383525 0.0491426
9152 1 0.701913 0.383123 0.0559248
2759 1 0.715846 0.311177 0.0511118
14850 1 0.671602 0.389916 0.0429224
22277 1 0.79772 0.308176 0.048707
3372 1 0.276601 0.26213 0.0821472
13868 1 0.827975 0.359738 0.0515404
13325 1 0.870451 0.347814 0.046053
9750 1 0.857245 0.285946 0.0535711
10950 1 0.924981 0.277968 0.0446996
13533 1 0.996048 0.305557 0.0489755
10688 1 0.927422 0.256852 0.0529855
12918 1 0.958547 0.365579 0.044867
15455 1 0.0758156 0.416556 0.0431794
14256 1 0.0284333 0.401463 0.0498601
14 1 0.101279 0.431931 0.0490297
11702 1 0.0565854 0.498624 0.0461628
11650 1 0.239467 0.400608 0.046179
9545 1 0.780729 0.103497 0.0429122
14190 1 0.152422 0.386696 0.0443852
12820 1 0.311715 0.352496 0.0454208
11387 1 0.838851 0.290493 0.0420224
9608 1 0.321406 0.430306 0.0475451
13832 1 0.440108 0.414628 0.0436873
14023 1 0.511008 0.428014 0.047193
14639 1 0.547474 0.429135 0.082115
21184 1 0.873115 0.000507278 0.042578
22425 1 0.436031 0.354071 0.052803
22274 1 0.52511 0.351142 0.0521014
14014 1 0.596096 0.430462 0.0489898
3215 1 0.987981 0.468434 0.0793003
12605 1 0.745492 0.433677 0.044414
9132 1 0.679487 0.459648 0.0475354
1870 1 0.772468 0.460023 0.0520562
21472 1 0.822789 0.429015 0.0462372
13272 1 0.895766 0.498216 0.0467762
13933 1 0.857187 0.438512 0.0532753
20608 1 0.917468 0.422688 0.0489457
15341 1 0.974353 0.489602 0.0699032
22110 1 0.978064 0.480113 0.0498123
11874 1 0.0285696 0.00168738 0.059647
14532 1 0.0601873 0.0539766 0.0636616
12132 1 0.0950516 0.129385 0.0612476
14335 1 0.0859767 0.0636027 0.0563446
1656 1 0.761892 0.292427 0.0822768
9263 1 0.132604 0.0433122 0.0627466
13582 1 0.209331 0.0550996 0.0630079
23509 1 0.333799 0.101818 0.0531034
15009 1 0.876826 0.144804 0.0428065
23386 1 0.311402 0.0387313 0.0611205
2846 1 0.379944 0.0499441 0.0565208
2336 1 0.360273 0.111952 0.0638824
13077 1 0.541939 0.0754087 0.0592854
14653 1 0.437263 0.00665913 0.0586552
11507 1 0.637477 0.0835327 0.0532597
15141 1 0.623632 0.134488 0.0607181
13674 1 0.617415 0.480286 0.0815977
14966 1 0.682439 0.0314739 0.051145
22116 1 0.64259 0.450563 0.0544383
11985 1 0.671669 0.0639013 0.0585301
22704 1 0.862723 0.149553 0.0609448
12823 1 0.738721 0.0542693 0.0548738
840 1 0.877945 0.0612619 0.0558726
13690 1 0.810369 0.038847 0.0577105
2253 1 0.366187 0.218178 0.0816026
2288 1 0.956514 0.157645 0.0529379
2766 1 0.127178 0.213604 0.0431018
12643 1 0.979674 0.0740242 0.0622095
11438 1 0.119982 0.122188 0.0527134
13269 1 0.0173204 0.109026 0.0572233
12318 1 0.0688481 0.198785 0.0556715
14797 1 0.00167044 0.220136 0.0659933
14738 1 0.166832 0.113831 0.0582385
1515 1 0.152149 0.187418 0.0552045
2693 1 0.159839 0.211416 0.0621216
3404 1 0.246873 0.0891368 0.0580853
966 1 0.309495 0.147461 0.0587564
12848 1 0.201969 0.13806 0.0648887
23841 1 0.323669 0.203433 0.053751
12323 1 0.228188 0.238328 0.0507551
21111 1 0.288025 0.249107 0.060226
15205 1 0.347845 0.283539 0.0639858
23995 1 0.39804 0.126448 0.0567
22947 1 0.422033 0.173244 0.063034
1134 1 0.556338 0.127688 0.0533925
2712 1 0.484 0.155881 0.0585935
14301 1 0.440025 0.135758 0.0686215
9985 1 0.501264 0.240168 0.0589147
1319 1 0.557466 0.178066 0.0585911
11242 1 0.495525 0.213065 0.0660064
9702 1 0.623193 0.181697 0.0545737
14523 1 0.697141 0.133444 0.0541958
1912 1 0.859901 0.131092 0.0549958
1259 1 0.708277 0.140547 0.061417
14355 1 0.784536 0.121932 0.0578922
23066 1 0.773762 0.181181 0.0647074
13204 1 0.712716 0.203697 0.0568373
11591 1 0.805332 0.217426 0.0587019
9738 1 0.882628 0.241442 0.0638252
14074 1 0.903817 0.204725 0.0577121
13299 1 0.990885 0.193642 0.0592539
714 1 0.940596 0.161748 0.0632217
13870 1 0.018065 0.245897 0.0541164
22079 1 0.115282 0.2668 0.0563336
12421 1 0.0754046 0.33065 0.0549852
183 1 0.0457609 0.287576 0.0613163
15493 1 0.0822633 0.364832 0.062355
23473 1 0.213833 0.248913 0.0585913
15435 1 0.155863 0.36264 0.0583003
884 1 0.231023 0.335101 0.0589684
202 1 0.300937 0.278667 0.053772
15370 1 0.301924 0.335014 0.0585351
10097 1 0.428773 0.26491 0.0565787
13147 1 0.368196 0.209577 0.0586639
10054 1 0.329602 0.374188 0.0517733
3537 1 0.43691 0.353732 0.0622214
21471 1 0.376772 0.312383 0.0585409
1358 1 0.481981 0.318988 0.0578716
22795 1 0.552121 0.334591 0.057743
79 1 0.56265 0.257535 0.0558343
272 1 0.592377 0.313164 0.0498301
22031 1 0.641339 0.268105 0.0539762
10069 1 0.628422 0.236786 0.0604359
22452 1 0.632205 0.329732 0.0589731
666 1 0.777229 0.250196 0.0527367
15255 1 0.714533 0.281598 0.0577956
13731 1 0.781903 0.284797 0.0636221
22430 1 0.778035 0.330827 0.0564072
13215 1 0.89644 0.366846 0.0567503
23329 1 0.921005 0.346296 0.0510825
1392 1 0.817703 0.36914 0.0675084
392 1 0.931073 0.284045 0.0591172
761 1 0.930461 0.358313 0.0640275
12079 1 0.992774 0.331862 0.0560392
13996 1 0.828072 0.399 0.0769878
13358 1 0.133035 0.42845 0.0559223
2239 1 0.180946 0.39037 0.0515467
1725 1 0.208038 0.430976 0.0572705
22555 1 0.492848 0.287566 0.0422341
23243 1 0.259893 0.372345 0.0536408
23479 1 0.509 0.00993885 0.0559413
21481 1 0.307798 0.437483 0.0563444
23873 1 0.39626 0.404378 0.056309
2296 1 0.389177 0.455432 0.0514174
11157 1 0.367673 0.397781 0.0615551
14697 1 0.560358 0.438672 0.0554775
21069 1 0.493519 0.396462 0.0576461
23332 1 0.45635 0.440353 0.0526623
13432 1 0.641533 0.482743 0.0611801
1591 1 0.608208 0.377729 0.05437
15035 1 0.590643 0.410717 0.0613259
1438 1 0.754127 0.374353 0.0626057
13244 1 0.724773 0.454453 0.0574143
10689 1 0.784898 0.441507 0.064027
11896 1 0.803188 0.409748 0.0563532
1253 1 0.85521 0.39229 0.0622916
9566 1 0.522405 0.13222 0.0426115
10398 1 0.96842 0.410062 0.0540914
12901 1 0.0832037 0.482075 0.0542727
451 1 0.946446 0.429062 0.0595339
23216 1 0.920742 0.00157538 0.0496952
11769 1 0.0493865 0.110407 0.0690851
10473 1 0.0873077 0.0436409 0.0716179
1967 1 0.665646 0.371414 0.0779917
13220 1 0.189345 0.0409169 0.0693727
11629 1 0.0995207 0.114446 0.0741749
22048 1 0.13184 0.096334 0.0672242
13172 1 0.445082 0.167141 0.0447776
2652 1 0.732396 0.159376 0.0819814
12658 1 0.270195 0.093149 0.0668643
14589 1 0.338932 0.0447348 0.0695511
33 1 0.388026 0.0127652 0.0644797
1972 1 0.443574 0.0657687 0.0715106
22170 1 0.523654 0.0541017 0.0669156
3171 1 0.499057 0.00368395 0.0625026
23807 1 0.449787 0.0835037 0.062328
1026 1 0.529846 0.147873 0.0638916
14463 1 0.600271 0.0496429 0.0629728
262 1 0.619084 0.0440514 0.0718942
21166 1 0.598099 0.107097 0.0678124
23093 1 0.933004 0.0065489 0.0611483
23766 1 0.749728 0.0720825 0.0624706
1440 1 0.715259 0.422556 0.0817734
15297 1 0.6682 0.0891594 0.0668294
2866 1 0.745987 0.104217 0.0691756
12470 1 0.477616 0.251164 0.081265
14761 1 0.565445 0.27139 0.082464
14393 1 0.864792 0.0355303 0.0644783
23741 1 0.788764 0.0304161 0.0680775
21617 1 0.896931 0.104977 0.0662187
11552 1 0.973069 0.0661634 0.068496
1198 1 0.873871 0.0715274 0.071901
11693 1 0.0256025 0.144476 0.0639655
10804 1 0.00240395 0.175474 0.0707814
2401 1 0.0783287 0.256064 0.0786836
12621 1 0.136072 0.175202 0.067457
9729 1 0.0770361 0.181668 0.0703141
23658 1 0.19652 0.207692 0.0696244
15216 1 0.306559 0.103995 0.0759851
2170 1 0.270376 0.18485 0.0631962
14579 1 0.181462 0.127087 0.0717169
671 1 0.351777 0.207412 0.066245
13261 1 0.376649 0.104385 0.0719508
13468 1 0.361601 0.179252 0.0743155
22080 1 0.432165 0.212891 0.0699291
13296 1 0.51246 0.134329 0.0696619
22251 1 0.586832 0.187181 0.0656154
23256 1 0.671894 0.174787 0.0668542
12746 1 0.592535 0.163495 0.0722259
11822 1 0.717848 0.238357 0.0635104
1661 1 0.814226 0.103349 0.0652638
10840 1 0.765584 0.204432 0.0709125
11018 1 0.844926 0.185954 0.0674048
15431 1 0.82514 0.26049 0.069791
14079 1 0.811034 0.137914 0.0715186
751 1 0.922476 0.230024 0.0689868
734 1 0.0347194 0.239257 0.0725393
15148 1 0.940698 0.12268 0.072923
22829 1 0.933373 0.121919 0.0582376
12067 1 0.0748327 0.21891 0.0635873
3026 1 0.0392669 0.322176 0.0670166
13218 1 0.0613754 0.403546 0.0696054
2000 1 0.216855 0.359336 0.0659995
14047 1 0.120974 0.259773 0.0680935
2489 1 0.152693 0.299477 0.0625552
12723 1 0.196071 0.290921 0.0709741
23880 1 0.121121 0.340016 0.0707779
13189 1 0.223917 0.255693 0.0650377
1537 1 0.27821 0.231713 0.0691885
10603 1 0.281508 0.32032 0.0689805
12068 1 0.416906 0.270692 0.0636587
23957 1 0.352612 0.266488 0.0706752
23498 1 0.340788 0.360158 0.0672976
21373 1 0.489483 0.29184 0.0651179
12520 1 0.558258 0.276325 0.0624899
22366 1 0.551334 0.243002 0.0710097
23103 1 0.530235 0.323775 0.0703463
11461 1 0.641837 0.218355 0.0739369
9186 1 0.621295 0.262054 0.0674243
3329 1 0.610102 0.297289 0.0746271
2656 1 0.683503 0.317314 0.0637871
9852 1 0.749144 0.323945 0.0686315
944 1 0.701654 0.264266 0.0706997
2832 1 0.677512 0.353205 0.0695072
23407 1 0.752012 0.389683 0.0728368
10691 1 0.859321 0.309764 0.0607418
1404 1 0.772216 0.271585 0.0746697
12874 1 0.890925 0.312767 0.0678693
886 1 0.954274 0.34297 0.0712074
13721 1 0.973634 0.299191 0.0644735
2345 1 0.0107882 0.387485 0.0618719
23146 1 0.00820452 0.460973 0.0631652
1861 1 0.135065 0.39382 0.0657907
14173 1 0.0471885 0.409971 0.0561959
13735 1 0.0943204 0.456503 0.0623975
9378 1 0.183697 0.462494 0.0631333
14564 1 0.124331 0.457951 0.0690767
14255 1 0.272932 0.399607 0.0620154
780 1 0.203429 0.439215 0.0696745
12653 1 0.190736 0.373538 0.0745776
9169 1 0.274053 0.399024 0.070197