ITEM: TIMESTEP
6599934
ITEM: NUMBER OF ATOMS
24000
ITEM: BOX BOUNDS pp pp pp
-2.0834916256085023e-03 3.3247289394437317e+01
-2.0834916256085023e-03 3.3247289394437317e+01
-9.4879689444829296e-01 3.9989126772816678e+02
ITEM: ATOMS id type xs ys zs
13028 1 0.0523632 0.0568618 0.00761299
3117 1 0.12061 0.0829482 0.00461909
9633 1 0.844548 0.177749 0.00170267
23378 1 0.311802 0.476871 0.00878274
14573 1 0.449723 0.137222 6.60311e-05
13873 1 0.240154 0.10779 0.0131999
468 1 0.20554 0.0843601 0.00356282
142 1 0.292325 0.350727 0.00161121
11932 1 0.276308 0.0767653 0.00789951
2934 1 0.358094 0.107649 0.00640195
21401 1 0.324931 0.0133039 0.00538959
11176 1 0.42232 0.0339477 0.00377257
15561 1 0.425644 0.164734 0.00553028
11720 1 0.356519 0.0680051 0.0120895
577 1 0.434084 0.0900655 0.00841246
15179 1 0.499143 0.132995 0.0126518
20812 1 0.510694 0.140098 0.00535832
13464 1 0.528868 0.0620951 0.0130697
22968 1 0.489716 0.0432362 0.00744882
23558 1 0.892276 0.312284 0.00290108
11966 1 0.570408 0.0447389 0.00272452
21994 1 0.578795 0.0910022 0.00833033
10056 1 0.718826 0.0694708 0.00402526
23065 1 0.654704 0.0794503 0.00885952
2808 1 0.193385 0.442598 0.0322828
2941 1 0.608294 0.401274 0.0339478
695 1 0.806014 0.0431019 0.00717156
13645 1 0.748562 0.119388 0.00853396
12433 1 0.839058 0.0585686 0.011841
2066 1 0.194491 0.0322635 0.0355019
13002 1 0.973988 0.0831005 0.00363463
12217 1 0.977918 0.103118 0.00978764
10741 1 0.908236 0.0040098 0.00358393
12711 1 0.0193821 0.221951 0.00274718
701 1 0.0773323 0.154799 0.0093397
15165 1 0.088304 0.205813 0.00358828
13825 1 0.501497 0.491425 0.0261198
22344 1 0.165395 0.130245 0.00784529
11937 1 0.204141 0.255378 0.00674057
22331 1 0.0468797 0.49974 0.0405999
3401 1 0.297984 0.0830777 0.00148512
14061 1 0.234642 0.176957 0.00928577
21327 1 0.235488 0.214672 0.0035237
3269 1 0.903744 0.450118 0.0394858
21038 1 0.297972 0.226947 0.00828158
12409 1 0.379755 0.215962 0.00816416
20979 1 0.490039 0.0642273 0.00132067
23982 1 0.311524 0.143611 0.0109379
8890 1 0.95963 0.0325325 0.0145714
13047 1 0.474153 0.218156 0.00379246
1731 1 0.581563 0.202734 0.00509316
14975 1 0.453282 0.207341 0.0110063
13249 1 0.789675 0.100701 0.00174394
1014 1 0.631802 0.113295 0.003464
2458 1 0.608147 0.276643 0.0029837
2131 1 0.672436 0.485906 0.000626323
22989 1 0.690298 0.189938 0.00996545
2701 1 0.682786 0.23025 0.00249629
2067 1 0.705999 0.149512 0.00299789
1903 1 0.550412 0.00356281 0.0370443
12919 1 0.821352 0.128337 0.00788151
23442 1 0.774154 0.191854 0.00429197
12401 1 0.86991 0.192707 0.00918038
14655 1 0.999509 0.177461 0.0076556
23099 1 0.917047 0.13327 0.0120724
23690 1 0.932007 0.157877 0.00357526
23375 1 0.531494 0.388802 0.0358495
23035 1 0.0185378 0.0158406 0.0333282
10009 1 0.0493889 0.238939 0.00981469
20671 1 0.076065 0.369119 0.00484544
9516 1 0.165052 0.177022 0.00216922
10485 1 0.107714 0.292423 0.00660314
9494 1 0.155663 0.380541 0.00932745
12297 1 0.054285 0.0454248 0.0201826
23022 1 0.157811 0.331251 0.00280825
21082 1 0.848589 0.26119 0.00553097
3048 1 0.14847 0.0241219 0.0302294
9173 1 0.276836 0.304586 0.00672637
9754 1 0.388274 0.330115 8.52636e-05
11895 1 0.429697 0.357475 0.00549782
2521 1 0.468005 0.279467 0.00717931
2528 1 0.986343 0.444604 0.0370912
13167 1 0.546309 0.271557 0.00746374
11437 1 0.137046 0.499488 0.026373
1719 1 0.512031 0.355119 0.00621472
21769 1 0.523627 0.277103 0.000876556
23226 1 0.59473 0.378802 0.00604508
10178 1 0.613176 0.320719 0.0101569
11620 1 0.774098 0.266704 0.00749503
700 1 0.676245 0.362704 0.00597874
15297 1 0.609116 0.140919 0.0405876
13226 1 0.780544 0.251215 0.000322265
907 1 0.699733 0.291693 0.00766033
23457 1 0.805576 0.337881 0.0131737
13629 1 0.769992 0.432996 0.0132565
15432 1 0.785028 0.347257 0.00326255
23491 1 0.823025 0.23961 0.0137829
22169 1 0.928673 0.231658 0.00532076
717 1 0.968276 0.306026 0.00172131
9837 1 0.883957 0.301798 0.0115903
1183 1 0.00527002 0.45247 0.00869675
11156 1 0.070164 0.46029 0.00395832
13847 1 0.921019 0.418478 0.0337555
1422 1 0.791426 0.256256 0.0379733
23718 1 0.133041 0.429439 0.00291266
344 1 0.32271 0.265837 0.00159141
11383 1 0.342957 0.486358 0.00228114
21418 1 0.768268 0.371432 0.0386854
23097 1 0.147684 0.485923 0.00797277
10555 1 0.285812 0.427974 0.00367056
9255 1 0.219671 0.376749 0.00495924
12789 1 0.307629 0.372984 0.00909819
1484 1 0.365711 0.404145 0.00246423
2028 1 0.0125242 0.015927 0.0262368
21484 1 0.637181 0.480338 0.0395763
2622 1 0.300566 0.423151 0.0146094
11921 1 0.249774 0.0302076 0.0414682
10353 1 0.474428 0.418793 0.00454198
11233 1 0.50676 0.0082362 0.0187156
10538 1 0.0532458 0.0460893 0.00072126
9535 1 0.650966 0.0235538 0.00369474
23152 1 0.394228 0.261213 0.0037924
13778 1 0.572169 0.458216 0.00391835
11515 1 0.792173 0.449424 0.0288491
14501 1 0.659061 0.452566 0.00626788
1253 1 0.1157 0.490138 0.0350876
11135 1 0.76205 0.441131 0.00441943
12691 1 0.850064 0.359239 0.00666352
22115 1 0.322598 0.0792402 0.0397267
14662 1 0.957705 0.32332 0.00832132
578 1 0.917539 0.395802 0.00483632
22250 1 0.0412668 0.0333683 0.0135321
23188 1 0.097801 0.106262 0.018253
21408 1 0.118957 0.0742652 0.0119133
12580 1 0.125967 0.0281754 0.0166545
10202 1 0.174245 0.0880592 0.019634
13641 1 0.00154706 0.435782 0.0308277
1933 1 0.211772 0.0291729 0.0162354
21743 1 0.289012 0.0329843 0.0142153
15490 1 0.267754 0.12406 0.019313
11765 1 0.313672 0.207794 0.0407021
22190 1 0.348327 0.040789 0.0197797
2769 1 0.462916 0.0371819 0.0238186
1004 1 0.441717 0.0710617 0.015055
9499 1 0.495174 0.0918155 0.0196467
1609 1 0.55824 0.141155 0.0163805
22986 1 0.755436 0.0801145 0.0414658
718 1 0.562491 0.0318841 0.0223383
14439 1 0.636409 0.0155029 0.012087
21628 1 0.605037 0.07076 0.0158091
11090 1 0.722838 0.0376851 0.0118223
2303 1 0.731675 0.0452555 0.0196766
9262 1 0.409069 0.456911 0.0309145
12166 1 0.768535 0.0896439 0.0146295
2641 1 0.905361 0.0791803 0.0166391
281 1 0.97405 0.0785424 0.0201249
21912 1 0.897262 0.0391696 0.0214889
22614 1 0.0230814 0.118518 0.0143894
15272 1 0.0881346 0.18831 0.0154669
22771 1 0.0127903 0.203451 0.0139958
10257 1 0.0246047 0.167917 0.0207606
21732 1 0.147446 0.204372 0.00931986
14470 1 0.10558 0.207199 0.0239713
557 1 0.163142 0.138624 0.0146064
15015 1 0.166418 0.223101 0.0163176
9044 1 0.25353 0.0488417 0.0219068
14090 1 0.232619 0.181013 0.0155791
9316 1 0.25238 0.271094 0.0131243
401 1 0.394858 0.141173 0.0124128
12976 1 0.332522 0.126921 0.0174638
470 1 0.299451 0.20289 0.0147048
9034 1 0.374947 0.208112 0.0160097
21761 1 0.52483 0.194544 0.00938501
11614 1 0.437716 0.165771 0.0189806
1758 1 0.51572 0.204395 0.0173506
21585 1 0.605689 0.16309 0.0113981
14453 1 0.584526 0.239642 0.0139746
14348 1 0.629094 0.17652 0.018007
1496 1 0.629443 0.242832 0.00887813
2127 1 0.772534 0.186282 0.0111863
3228 1 0.733677 0.271845 0.0137496
22605 1 0.668374 0.0992768 0.0165169
23121 1 0.826353 0.144582 0.0138165
22642 1 0.72357 0.185988 0.0165965
22768 1 0.80189 0.195885 0.0191626
10080 1 0.878099 0.238092 0.0215883
21969 1 0.957789 0.156907 0.0173924
1254 1 0.827494 0.0622651 0.0185135
14584 1 0.898503 0.216573 0.0151847
23216 1 0.97739 0.23245 0.0192245
10309 1 0.100803 0.332389 0.0136184
22381 1 0.109139 0.263458 0.012574
15171 1 0.020951 0.297538 0.0148315
2512 1 0.172738 0.301653 0.0105483
13761 1 0.148479 0.384194 0.0176232
21909 1 0.142114 0.281495 0.0207812
14947 1 0.197448 0.316062 0.0169113
14928 1 0.292055 0.259665 0.0192378
14390 1 0.229131 0.363073 0.0125678
191 1 0.325045 0.284786 0.0127897
11608 1 0.371294 0.325125 0.00736973
13928 1 0.415085 0.284519 0.0119257
14958 1 0.426685 0.33096 0.0208085
12507 1 0.509493 0.274664 0.0137803
3087 1 0.439819 0.260756 0.0178438
22915 1 0.447347 0.369513 0.0117781
14875 1 0.562464 0.369467 0.0127364
21299 1 0.642172 0.403004 0.0121594
3232 1 0.580045 0.308451 0.0169588
2370 1 0.657519 0.341478 0.0177763
2855 1 0.657122 0.241286 0.0161224
844 1 0.685776 0.346129 0.0123877
9517 1 0.703929 0.410522 0.0181086
1365 1 0.787699 0.267822 0.0194333
10859 1 0.851681 0.344444 0.0182955
22680 1 0.890746 0.381432 0.0120961
14410 1 0.0338947 0.30007 0.00588242
15504 1 0.922982 0.302415 0.0176402
11735 1 0.958076 0.244888 0.0109751
448 1 0.971612 0.381518 0.0146306
13728 1 0.919908 0.420303 0.0199017
21886 1 0.0290425 0.371327 0.01085
12108 1 0.0508833 0.39746 0.0171937
13276 1 0.0969379 0.42206 0.0104905
10411 1 0.0159007 0.44942 0.0151427
313 1 0.00153153 0.436931 0.0213386
22735 1 0.191982 0.0569835 0.010579
11532 1 0.175427 0.442352 0.01372
1926 1 0.15672 0.251329 0.00206301
2778 1 0.227299 0.404369 0.0183764
13413 1 0.238581 0.446419 0.00949267
12064 1 0.370918 0.369507 0.0152961
2112 1 0.36914 0.449561 0.0162507
14968 1 0.381553 0.412937 0.00982803
14066 1 0.437488 0.401263 0.0193295
2636 1 0.526054 0.430295 0.0169927
1740 1 0.830762 0.399968 0.00239597
21664 1 0.830238 0.427284 0.0349944
12828 1 0.609648 0.41359 0.0183984
21089 1 0.526454 0.426079 0.00986131
12425 1 0.595235 0.47016 0.0130557
1354 1 0.751512 0.361271 0.00882378
9436 1 0.675099 0.492556 0.0156364
12225 1 0.792407 0.412111 0.0190693
14822 1 0.824813 0.434501 0.00879581
10022 1 0.860336 0.440073 0.0166586
23524 1 0.413146 0.00128513 0.0102192
1801 1 0.931027 0.459084 0.0127252
13014 1 0.0298369 0.106745 0.0248657
11558 1 0.0861304 0.05175 0.0265149
624 1 0.097458 0.0830578 0.0320473
2766 1 0.999409 0.0557916 0.0391514
13104 1 0.117898 0.12164 0.0252851
3036 1 0.1827 0.105828 0.0310613
3114 1 0.178315 0.0699645 0.0254639
13272 1 0.739665 0.449034 0.0361632
10228 1 0.254936 0.0733749 0.0294278
21310 1 0.485669 0.416166 0.0408101
15450 1 0.321507 0.0980402 0.024113
21072 1 0.231823 0.130592 0.0250527
12905 1 0.335969 0.0284222 0.0295716
11630 1 0.407536 0.0714035 0.0276656
15371 1 0.16011 0.0114591 0.00403677
2669 1 0.44563 0.1448 0.0262516
10520 1 0.572327 0.0751369 0.0330141
13336 1 0.51551 0.0859827 0.0268711
9877 1 0.487974 0.05629 0.0320978
10307 1 0.807557 0.485776 0.0227251
10815 1 0.606444 0.0359906 0.0276223
1794 1 0.610342 0.135954 0.0288438
23342 1 0.709798 0.0352639 0.0263768
1639 1 0.704152 0.116384 0.0222977
14583 1 0.659258 0.0347852 0.0214314
23496 1 0.709947 0.409291 0.000768468
12358 1 0.043952 0.127294 0.00377183
11387 1 0.669016 0.0919132 0.0273988
22807 1 0.354646 0.420775 0.034791
22474 1 0.784896 0.117002 0.0205385
10495 1 0.794976 0.0347008 0.0240075
23417 1 0.848717 0.0969258 0.025854
9626 1 0.757999 0.0988751 0.0271255
22863 1 0.95642 0.150706 0.0247181
13732 1 0.908554 0.1246 0.0312562
21008 1 0.789961 0.00334713 0.0308129
45 1 0.0631595 0.154649 0.0298242
354 1 0.942772 0.260966 0.0247259
2273 1 0.0168835 0.222332 0.0256922
11438 1 0.0768879 0.291345 0.0268726
23315 1 0.215807 0.237364 0.0199564
12657 1 0.132357 0.17529 0.0342246
13218 1 0.152973 0.186215 0.0280777
12567 1 0.165258 0.159471 0.0216153
21095 1 0.300417 0.19002 0.0230362
12313 1 0.245342 0.209945 0.0280427
23326 1 0.325636 0.260781 0.0258843
13997 1 0.291925 0.141722 0.0290244
14154 1 0.409124 0.0954903 0.0210323
11289 1 0.383221 0.206052 0.022681
13912 1 0.365503 0.165271 0.0287157
21572 1 0.479415 0.214756 0.0232767
10780 1 0.514233 0.16353 0.0305619
14781 1 0.445457 0.20826 0.0304417
12074 1 0.533762 0.155651 0.0233776
1677 1 0.521487 0.262694 0.0277328
1799 1 0.573198 0.221453 0.0220296
1870 1 0.608617 0.109088 0.0215942
21812 1 0.675066 0.163294 0.0313784
1603 1 0.715727 0.253384 0.0213869
1193 1 0.741083 0.175996 0.0249172
11215 1 0.657407 0.195823 0.0249959
1867 1 0.824605 0.202474 0.0251485
2866 1 0.829598 0.145358 0.0313681
10945 1 0.904805 0.200597 0.0281298
14784 1 0.873308 0.148975 0.0203502
21488 1 0.0180632 0.269197 0.0309036
10367 1 0.0696568 0.262344 0.0191948
10004 1 0.0837554 0.339399 0.0211099
12354 1 0.0144335 0.306038 0.0226012
13696 1 0.048647 0.354422 0.0314875
22759 1 0.175732 0.283911 0.0270668
21652 1 0.193416 0.36196 0.0230581
10183 1 0.200747 0.354694 0.0309633
23399 1 0.288028 0.346871 0.0178779
12589 1 0.251675 0.294755 0.0241806
1569 1 0.363227 0.283002 0.0197666
14179 1 0.316158 0.342966 0.0244265
9035 1 0.408257 0.260946 0.0264916
21884 1 0.488477 0.330914 0.0245916
23514 1 0.44881 0.301497 0.0311895
2096 1 0.520174 0.36659 0.0290895
622 1 0.505244 0.341141 0.0174849
12938 1 0.516593 0.270805 0.0205678
22020 1 0.634224 0.276569 0.0223046
11650 1 0.591679 0.298934 0.0261542
12874 1 0.583868 0.221953 0.0287475
707 1 0.75908 0.256702 0.0278123
14836 1 0.736153 0.338427 0.018668
14203 1 0.705983 0.322117 0.025398
23926 1 0.653697 0.354439 0.0292678
22287 1 0.796516 0.331186 0.0248893
2359 1 0.80449 0.371564 0.0310103
1518 1 0.860556 0.280004 0.0284024
9032 1 0.889612 0.36143 0.0308482
14729 1 0.899938 0.340634 0.0232854
3509 1 0.918637 0.274736 0.0326904
1919 1 0.685613 0.379442 0.0394861
15239 1 0.0761756 0.478967 0.0197717
2790 1 0.0462549 0.395501 0.0263944
12983 1 0.964194 0.485068 0.0259643
22237 1 0.121255 0.42402 0.0230508
12256 1 0.200429 0.439981 0.0244626
2692 1 0.0983369 0.447843 0.0299254
3118 1 0.133569 0.359547 0.0274095
2249 1 0.430071 0.374558 0.0337908
2515 1 0.298734 0.431723 0.0218988
22374 1 0.258771 0.402727 0.0260548
13752 1 0.346423 0.470841 0.0277964
22236 1 0.160578 0.478912 0.0192374
23126 1 0.341867 0.39463 0.0285418
13675 1 0.434225 0.381683 0.026909
11606 1 0.361049 0.388957 0.02188
14403 1 0.428775 0.463024 0.0239886
9524 1 0.57214 0.471796 0.0230089
2299 1 0.311756 0.178294 0.00346911
3049 1 0.501026 0.410378 0.0230008
21132 1 0.599137 0.4866 0.029596
11411 1 0.560467 0.355236 0.0230506
12099 1 0.581999 0.40804 0.027154
166 1 0.645514 0.486496 0.0223272
13009 1 0.66425 0.449762 0.0336082
11139 1 0.661325 0.382579 0.0234093
13378 1 0.655487 0.439178 0.0264711
14850 1 0.724134 0.388441 0.032675
12122 1 0.840123 0.38941 0.0244214
11257 1 0.742848 0.40131 0.0264407
14618 1 0.724184 0.463084 0.0223334
21991 1 0.876286 0.43907 0.0283046
11776 1 0.950214 0.400058 0.0264977
12775 1 0.973157 0.365019 0.0210659
11702 1 0.88593 0.487992 0.0233966
13568 1 0.56783 0.34118 0.000706276
12535 1 0.764875 0.000187528 0.0377479
15374 1 0.017704 0.0865568 0.031261
12857 1 0.220682 0.122906 0.0385002
2089 1 0.00505976 0.401967 0.00424952
22731 1 0.136357 0.112814 0.0392072
1224 1 0.173049 0.18849 0.0410183
9953 1 0.0940606 0.0236245 0.0360976
1825 1 0.29728 0.149616 0.0358732
11727 1 0.277676 0.0580293 0.0350979
12932 1 0.821221 0.49952 0.00126309
14710 1 0.430143 0.0865684 0.0375345
1753 1 0.36046 0.0861919 0.0332192
12061 1 0.410612 0.468494 0.00599349
11398 1 0.38047 0.377325 0.0413422
21335 1 0.38557 0.499766 0.0116962
1783 1 0.525179 0.115258 0.0369191
10872 1 0.622527 0.0220417 0.0348739
1483 1 0.58054 0.0680006 0.0403536
1234 1 0.644953 0.107631 0.035441
2440 1 0.703279 0.0652159 0.0330425
23476 1 0.73703 0.130449 0.0363121
14158 1 0.689644 0.0215853 0.0387314
21721 1 0.376196 0.0164757 0.0367163
13904 1 0.862303 0.0352276 0.0296809
10223 1 0.484297 0.439517 0.0317878
13427 1 0.790563 0.0735351 0.0343235
9479 1 0.888914 0.46634 0.00588561
15103 1 0.232697 0.471404 0.0379848
12309 1 0.94921 0.0680212 0.0272261
2130 1 0.94418 0.0418188 0.0343395
11394 1 0.0892958 0.230261 0.0317567
23796 1 0.0478694 0.134027 0.0359637
2693 1 0.0104266 0.205608 0.0355716
14783 1 0.0787227 0.294158 0.0369178
599 1 0.0840527 0.19652 0.0396806
23463 1 0.155228 0.252036 0.0365746
12110 1 0.243436 0.238826 0.0377712
13390 1 0.225308 0.169497 0.0330394
930 1 0.305449 0.213787 0.0322922
10628 1 0.876993 0.0955594 0.00369766
14227 1 0.421545 0.435047 0.0371636
21208 1 0.990446 0.474139 5.46821e-05
1276 1 0.426691 0.130302 0.031968
21075 1 0.383344 0.234663 0.032905
2811 1 0.530938 0.223428 0.0335585
13172 1 0.444067 0.17187 0.0365458
11433 1 0.715928 0.462023 0.00979872
265 1 0.669907 0.181926 0.0385843
13092 1 0.612393 0.241012 0.0354357
1267 1 0.587915 0.165303 0.0347196
21930 1 0.761749 0.180107 0.0315927
11226 1 0.71954 0.238392 0.0356221
21406 1 0.833215 0.22659 0.0317357
716 1 0.873128 0.0893228 0.0360914
23590 1 0.806062 0.158018 0.0374121
11896 1 0.603657 0.399303 0.0404036
12918 1 0.900244 0.187209 0.034492
12124 1 0.955628 0.136512 0.0369653
12846 1 0.252953 0.0230655 0.00275567
11221 1 0.970296 0.174925 0.0308948
8526 1 0.0226776 0.364455 0.0383063
10234 1 0.115205 0.359551 0.0411249
23661 1 0.239926 0.48932 0.0188154
2193 1 0.143163 0.309333 0.0325251
21345 1 0.226906 0.369046 0.036582
21216 1 0.171124 0.318865 0.0383352
23871 1 0.317039 0.274022 0.0362355
2493 1 0.254509 0.306978 0.0397339
14233 1 0.230495 0.271967 0.0314534
15310 1 0.321789 0.356417 0.0365631
3210 1 0.282927 0.324509 0.0303572
20943 1 0.459532 0.347132 0.0395275
23893 1 0.40378 0.318941 0.0370797
9132 1 0.370237 0.330143 0.0300679
3022 1 0.449387 0.247491 0.0364545
12520 1 0.511853 0.306814 0.03586
9125 1 0.451961 0.442558 0.0123847
902 1 0.576491 0.314558 0.0396789
2780 1 0.589547 0.319796 0.0325563
13367 1 0.665151 0.264774 0.0298774
14552 1 0.660641 0.308933 0.0363021
2995 1 0.7333 0.311651 0.032398
22566 1 0.736987 0.300026 0.0405954
14491 1 0.94494 0.212279 0.0401964
13868 1 0.828083 0.304844 0.0342185
1695 1 0.884248 0.355969 0.0386355
11413 1 0.959938 0.346786 0.0342945
22970 1 0.976676 0.32761 0.0277105
13215 1 0.551063 0.460844 0.0359105
15106 1 0.871828 0.257983 0.0377601
1085 1 0.999193 0.27851 0.0378578
22939 1 0.371011 0.154835 0.0369527
2462 1 0.125217 0.378729 0.0347968
13911 1 0.884659 0.150169 0.0408334
22683 1 0.0694747 0.428387 0.0368916
22127 1 0.16246 0.424589 0.038967
14587 1 0.98731 0.0179322 0.00616321
23665 1 0.280618 0.40939 0.0328251
22555 1 0.292318 0.417074 0.0389216
13095 1 0.914955 0.0574017 0.00915767
12858 1 0.475005 0.493625 0.0192322
12294 1 0.481676 0.0401642 0.0407374
9425 1 0.3522 0.458827 0.0410396
62 1 0.532327 0.186225 0.0402737
14797 1 0.797358 0.484203 0.0406398
2677 1 0.2694 0.469238 0.028512
3004 1 0.562478 0.00951864 0.00839592
2950 1 0.72183 0.315931 0.000948166
23471 1 0.738461 0.485247 0.029458
23957 1 0.387498 0.229199 0.0403297
48 1 0.16028 0.0462889 0.0416519
10524 1 0.0663133 0.0189855 0.0415999
12761 1 0.82061 0.315666 0.0414387
1442 1 0.13055 0.494753 0.0416279
10994 1 0.386498 0.0895838 0.000722533
10374 1 0.382043 0.19649 0.000210464
9645 1 0.113708 0.0600662 0.0475737
22332 1 0.999423 0.132304 0.0491892
753 1 0.0863823 0.117664 0.0513958
14524 1 0.342452 0.491975 0.0719377
14517 1 0.0800737 0.192791 0.0468033
3255 1 0.149237 0.130468 0.0451343
10398 1 0.0439399 0.429047 0.043312
1093 1 0.225104 0.0904459 0.0441976
623 1 0.178223 0.26509 0.0431238
9483 1 0.310672 0.036009 0.045279
23804 1 0.0185598 0.0589038 0.0461967
23386 1 0.377334 0.103563 0.0478021
325 1 0.222804 0.472753 0.0438929
13586 1 0.371582 0.0539341 0.0585526
13403 1 0.463332 0.0583842 0.0475164
15141 1 0.543809 0.102538 0.045832
210 1 0.541703 0.0152761 0.0446239
12702 1 0.600077 0.057167 0.047665
14175 1 0.834221 0.0820861 0.0416741
11027 1 0.714495 0.155353 0.0445889
885 1 0.931166 0.450032 0.0831794
9519 1 0.77907 0.0681831 0.0480204
1962 1 0.800251 0.00178535 0.0677367
22171 1 0.563558 0.326374 0.0822078
2979 1 0.957708 0.473977 0.0516468
11194 1 0.83544 0.12005 0.0512037
14356 1 0.872816 0.0639786 0.0475303
3314 1 0.0641111 0.0937171 0.0421668
9188 1 0.0182459 0.486942 0.0476073
9861 1 0.979006 0.201697 0.047235
3423 1 0.776843 0.0107493 0.0743549
2218 1 0.0249111 0.2449 0.0438769
3404 1 0.151548 0.221148 0.0474288
21471 1 0.179919 0.176576 0.051648
642 1 0.252611 0.311473 0.0801242
2928 1 0.129864 0.245055 0.0533057
1142 1 0.23915 0.172278 0.0444038
1517 1 0.254059 0.250831 0.0453697
12787 1 0.34644 0.222011 0.0465619
2695 1 0.303603 0.127591 0.0453724
12585 1 0.387079 0.154877 0.043778
621 1 0.326233 0.151914 0.0520369
22193 1 0.453346 0.143321 0.049309
966 1 0.522294 0.209452 0.047535
1134 1 0.398101 0.191681 0.0498589
12233 1 0.591258 0.13592 0.0495084
14532 1 0.737085 0.0267872 0.0534788
9860 1 0.5914 0.238606 0.0443988
21995 1 0.194375 0.0543933 0.0651471
22366 1 0.645036 0.183168 0.044943
856 1 0.68322 0.0907265 0.0486201
21242 1 0.752741 0.126385 0.0509851
22500 1 0.886252 0.167592 0.0468544
21023 1 0.739437 0.224707 0.0429322
714 1 0.793688 0.147667 0.0449677
13204 1 0.829868 0.222726 0.0509332
852 1 0.94026 0.116381 0.0460722
1370 1 0.965022 0.278776 0.0487344
3137 1 0.901461 0.491633 0.0776418
13760 1 0.0888766 0.276415 0.0482214
13294 1 0.0208608 0.333749 0.0522428
1017 1 0.276446 0.48628 0.0818978
21142 1 0.223031 0.380725 0.0432286
202 1 0.155731 0.336562 0.0477735
13044 1 0.195326 0.354736 0.0534564
23567 1 0.197037 0.279954 0.0505449
23317 1 0.323388 0.291545 0.0431847
2942 1 0.102843 0.276675 0.0422568
9169 1 0.31891 0.40662 0.0533603
3217 1 0.394108 0.266887 0.051541
12982 1 0.328955 0.0746327 0.0526232
12257 1 0.366642 0.364125 0.0482621
9186 1 0.41655 0.306284 0.0440085
1319 1 0.475159 0.258911 0.050469
22054 1 0.856393 0.0101359 0.0429202
15255 1 0.467661 0.343309 0.0477234
23971 1 0.449737 0.221543 0.0438554
23332 1 0.566448 0.298427 0.0480117
10114 1 0.48804 0.479141 0.0811606
1340 1 0.638536 0.310276 0.0510203
1429 1 0.591636 0.402971 0.04662
14014 1 0.689289 0.253991 0.0487943
14088 1 0.71603 0.334753 0.047029
23329 1 0.780805 0.284554 0.0470626
22704 1 0.132833 0.0253666 0.0682855
10611 1 0.895577 0.247707 0.0451117
12185 1 0.114754 0.00199188 0.0625825
12285 1 0.849497 0.335346 0.0487882
12819 1 0.0307657 0.242104 0.051631
21330 1 0.951485 0.29006 0.0419801
14636 1 0.920229 0.340214 0.0520742
14028 1 0.0945911 0.464226 0.0463828
2041 1 0.0317618 0.425468 0.0521474
264 1 0.920948 0.347365 0.045063
14 1 0.0845379 0.3811 0.0466423
12779 1 0.0506857 0.0128057 0.0506107
15009 1 0.13214 0.414549 0.0523716
23667 1 0.500737 0.279713 0.0433116
3321 1 0.247025 0.40667 0.0492763
2619 1 0.296709 0.485152 0.0511007
12510 1 0.221591 0.476078 0.0519931
1666 1 0.294503 0.447445 0.0455911
1550 1 0.551701 0.468699 0.0768254
9963 1 0.30767 0.366816 0.0443029
2487 1 0.465871 0.00102124 0.0549322
1902 1 0.897633 0.423707 0.073488
14118 1 0.431639 0.41414 0.0464644
21128 1 0.368841 0.447853 0.048442
14638 1 0.509884 0.414934 0.048502
23285 1 0.966134 0.375066 0.0831579
562 1 0.822587 0.216112 0.0436799
1274 1 0.525653 0.364476 0.0437164
1656 1 0.566554 0.464807 0.0430144
11788 1 0.996452 0.143051 0.0424308
22692 1 0.0273933 0.321257 0.0442077
9138 1 0.671727 0.405559 0.0452544
12811 1 0.641255 0.394697 0.0510859
10840 1 0.709215 0.362871 0.0533659
757 1 0.727886 0.440439 0.0501027
22016 1 0.780799 0.377402 0.0508168
10661 1 0.808072 0.444511 0.0517869
12844 1 0.974036 0.389782 0.04854
10689 1 0.894801 0.424162 0.0488593
21078 1 0.090647 0.0569196 0.0551845
2732 1 0.993318 0.12426 0.0622237
23278 1 0.484896 0.0101391 0.0734619
2029 1 0.251684 0.0453933 0.0526206
14173 1 0.157896 0.0881379 0.0522642
12620 1 0.131377 0.0776452 0.0615799
2054 1 0.142175 0.144845 0.0574768
14970 1 0.186585 0.490429 0.0574108
2698 1 0.216141 0.117522 0.0567617
13358 1 0.839174 0.407233 0.0430333
9729 1 0.277979 0.0862579 0.0587791
12479 1 0.538389 0.0458658 0.0526388
13718 1 0.528109 0.496984 0.0702999
3303 1 0.482037 0.0789733 0.061827
12927 1 0.475132 0.0852482 0.055156
21793 1 0.551307 0.08935 0.0588025
13996 1 0.125828 0.00297574 0.0810215
12067 1 0.728057 0.493787 0.0718734
14023 1 0.163604 0.420277 0.0457637
22740 1 0.620814 0.0915061 0.0542812
11040 1 0.658583 0.0166864 0.0530522
2321 1 0.532883 0.0148831 0.082852
3196 1 0.684812 0.0513933 0.0620418
22997 1 0.694193 0.0950361 0.05491
9850 1 0.850073 0.114885 0.06155
12910 1 0.865365 0.0643574 0.0549285
1795 1 0.787291 0.0888997 0.0560035
840 1 0.992908 0.0805201 0.0546818
21681 1 0.927049 0.163774 0.060873
1643 1 0.930264 0.127156 0.0524821
9238 1 0.0768548 0.188759 0.0552084
11790 1 0.0685444 0.124675 0.0593346
2165 1 0.0649778 0.281614 0.0570986
12254 1 0.0233077 0.218823 0.0603212
3537 1 0.112442 0.234254 0.0599729
10943 1 0.245196 0.203253 0.050658
12497 1 0.183611 0.204648 0.0591894
12848 1 0.195719 0.147951 0.0638604
21390 1 0.307836 0.238495 0.0532936
9708 1 0.241288 0.11722 0.0505552
860 1 0.24889 0.252414 0.0630352
1041 1 0.320376 0.231836 0.0610283
1341 1 0.347652 0.152903 0.0599618
12282 1 0.427832 0.134823 0.0606491
13221 1 0.408801 0.126492 0.0544098
14999 1 0.379543 0.216662 0.0564736
11579 1 0.459925 0.196074 0.0550688
1026 1 0.520879 0.155304 0.0608508
11761 1 0.521974 0.139868 0.0528987
22170 1 0.558022 0.23628 0.0616984
2016 1 0.62038 0.231187 0.0525888
14523 1 0.598154 0.163255 0.0567005
22277 1 0.63371 0.225406 0.0598494
11693 1 0.54144 0.22568 0.0544007
13269 1 0.610522 0.0378307 0.0602177
14172 1 0.722457 0.199024 0.0570882
13870 1 0.748858 0.208421 0.0488756
28 1 0.672625 0.168144 0.0519571
3215 1 0.765081 0.234082 0.0619155
15370 1 0.87472 0.164837 0.0566992
14255 1 0.796598 0.168651 0.0633008
2345 1 0.792375 0.16331 0.0568178
9 1 0.955966 0.208784 0.0532118
10167 1 0.996219 0.151434 0.0560537
1007 1 0.92195 0.245741 0.0598731
3262 1 0.105865 0.342644 0.0525681
21984 1 0.968226 0.289925 0.0556876
12820 1 0.0041343 0.353852 0.0585931
12334 1 0.12004 0.336842 0.0598637
23243 1 0.170328 0.287945 0.0583778
22942 1 0.156296 0.400637 0.0592239
12489 1 0.279844 0.313784 0.0488801
23302 1 0.252808 0.273677 0.0569316
73 1 0.337315 0.309998 0.0545294
11835 1 0.309905 0.309097 0.0610525
3957 1 0.307797 0.393341 0.0615758
12283 1 0.269466 0.353279 0.0561367
23509 1 0.412301 0.342865 0.0532861
22251 1 0.375453 0.369512 0.058402
12389 1 0.398714 0.287641 0.0585572
23984 1 0.460587 0.371148 0.0593527
3171 1 0.417937 0.416025 0.0530588
9272 1 0.497689 0.328382 0.0540169
12917 1 0.563582 0.294349 0.0561318
13569 1 0.607826 0.238398 0.0676358
12746 1 0.597661 0.305487 0.0627937
13299 1 0.748963 0.292884 0.0547652
1737 1 0.678413 0.266618 0.0556968
1434 1 0.819162 0.320782 0.0555442
9152 1 0.818607 0.372559 0.0624211
21500 1 0.827575 0.239131 0.0571013
22356 1 0.8602 0.391017 0.0550814
14697 1 0.896006 0.316291 0.0595563
9378 1 0.886713 0.272259 0.0532974
10950 1 0.952267 0.409589 0.0557738
13189 1 0.114108 0.494442 0.0531058
23146 1 0.0738767 0.318748 0.0655581
1929 1 0.992166 0.423434 0.0623539
13717 1 0.0684656 0.404407 0.0582276
14008 1 0.669721 0.090884 0.0424399
23826 1 0.226268 0.419926 0.0564435
14190 1 0.221333 0.459784 0.0635144
15493 1 0.20917 0.355478 0.0606667
9095 1 0.279893 0.466799 0.0584493
1250 1 0.366331 0.466763 0.0575508
2389 1 0.655161 0.478828 0.0538486
23807 1 0.564615 0.373202 0.0516432
11157 1 0.506195 0.423033 0.054987
22795 1 0.543666 0.43924 0.0617126
21937 1 0.562904 0.47441 0.0509664
8916 1 0.597758 0.422484 0.0569515
11626 1 0.648258 0.341244 0.0575556
13298 1 0.859967 0.493691 0.0450842
14545 1 0.663447 0.40984 0.0616509
9702 1 0.593268 0.384208 0.0634858
23877 1 0.220342 -0.000118223 0.0772616
1982 1 0.769164 0.39956 0.0570098
14686 1 0.477688 0.133825 0.0421798
2561 1 0.818921 0.454473 0.0593844
13821 1 0.0310281 0.056468 0.0596278
1348 1 0.936365 0.490732 0.0712077
1725 1 0.0175797 0.470446 0.0572828
10435 1 0.871926 0.472893 0.0546334
22747 1 0.664124 0.259213 0.041663
2471 1 0.898998 0.423952 0.0610771
13262 1 0.0712795 0.0733225 0.0654424
9263 1 0.981302 0.0610144 0.0672312
10563 1 0.0712766 0.0433829 0.0714602
13690 1 0.211844 0.0583541 0.0717878
23995 1 0.148337 0.116035 0.0691378
1361 1 0.303167 0.00519356 0.0699203
14670 1 0.280342 0.105578 0.0756576
21838 1 0.217312 0.0787792 0.0795596
10334 1 0.269483 0.10651 0.0694762
112 1 0.363948 0.0591292 0.0715428
13533 1 0.150857 0.00248874 0.0528519
891 1 0.929948 0.012498 0.0831017
9222 1 0.843742 0.446034 0.080383
13036 1 0.399124 0.094704 0.06641
14391 1 0.470945 0.0603943 0.0689646
12212 1 0.544263 0.0937256 0.0723763
11982 1 0.994065 0.19666 0.0824545
33 1 0.616166 0.0665964 0.0683384
13976 1 0.52906 0.000895895 0.0599538
14939 1 0.714647 0.497333 0.0816654
20608 1 0.969911 0.387081 0.0417644
13888 1 0.727116 0.0307834 0.0675008
15398 1 0.673425 0.456759 0.0756429
22428 1 0.780239 0.0371812 0.0611505
15132 1 0.899383 0.0579268 0.0666194
13010 1 0.777983 0.0992189 0.0669404
15607 1 0.722353 0.416555 0.0702886
22079 1 0.930895 0.0790923 0.0598036
10473 1 0.938994 0.138819 0.0675695
11769 1 0.937105 0.0220897 0.0727338
2337 1 0.0774408 0.239236 0.0664974
11242 1 0.0697467 0.124362 0.0711914
13366 1 0.105083 0.157071 0.0642358
23118 1 0.219604 0.208533 0.068786
540 1 0.141415 0.19846 0.0686768
14301 1 0.191337 0.218229 0.0755229
2384 1 0.204479 0.134595 0.0734456
21223 1 0.267141 0.18352 0.0576788
21710 1 0.295417 0.163768 0.065192
1630 1 0.321808 0.0590301 0.0649118
2600 1 0.423866 0.224991 0.0624778
12120 1 0.365616 0.191659 0.065773
23298 1 0.432167 0.190954 0.0694915
1972 1 0.469559 0.126107 0.0664023
950 1 0.492111 0.21018 0.0654975
14966 1 0.541333 0.0586376 0.06586
12895 1 0.666099 0.194261 0.0679372
761 1 0.583096 0.142289 0.0637355
1715 1 0.741345 0.106728 0.0605104
10293 1 0.747421 0.178923 0.0704474
23479 1 0.687251 0.104312 0.0670835
23103 1 0.71929 0.169316 0.0638794
23301 1 0.85575 0.207539 0.0632961
13901 1 0.82432 0.223349 0.0688846
12914 1 0.84647 0.147643 0.06974
22940 1 0.0176006 0.170933 0.0667096
2951 1 0.947073 0.219502 0.065642
1404 1 0.994873 0.249418 0.0703254
13859 1 0.89828 0.202734 0.0705348
10804 1 0.0578913 0.294577 0.0718173
23129 1 0.00205302 0.285702 0.0629752
2656 1 0.16275 0.342429 0.0656042
1898 1 0.969198 0.401705 0.0747165
11552 1 0.134789 0.266191 0.0712462
1861 1 0.16209 0.260891 0.0643598
10773 1 0.166461 0.313727 0.0751193
15011 1 0.21469 0.293606 0.0676667
13374 1 0.293713 0.241862 0.0677355
22663 1 0.252096 0.382614 0.0657792
1137 1 0.293118 0.327643 0.0686534
13684 1 0.361517 0.36273 0.0653738
9235 1 0.363389 0.282959 0.0665165
2449 1 0.374199 0.336971 0.0718507
9985 1 0.484338 0.268721 0.0579616
21425 1 0.440701 0.268558 0.068712
22430 1 0.509179 0.291819 0.0652728
3368 1 0.519823 0.365827 0.0683425
13112 1 0.60236 0.22944 0.0746274
22971 1 0.537496 0.279662 0.0712396
1012 1 0.654565 0.14208 0.0605508
12587 1 0.608977 0.335476 0.0700354
13420 1 0.688469 0.265919 0.0623638
3329 1 0.679345 0.270167 0.0708944
14355 1 0.748381 0.262151 0.067981
10691 1 0.742767 0.325117 0.0603089
21688 1 0.774472 0.346951 0.0674691
13241 1 0.811548 0.286219 0.0641695
2035 1 0.881085 0.369016 0.0667472