ITEM: TIMESTEP
6366603
ITEM: NUMBER OF ATOMS
24000
ITEM: BOX BOUNDS pp pp pp
-2.0834916256085023e-03 3.3247289394437317e+01
-2.0834916256085023e-03 3.3247289394437317e+01
-1.2043024275678533e+00 4.0014677326128367e+02
ITEM: ATOMS id type xs ys zs
479 1 0.0411755 0.0664871 0.00779999
9180 1 0.895156 0.406552 0.0386423
12891 1 0.841044 0.338309 0.000664037
12405 1 0.183551 0.083801 0.00626142
9438 1 0.107072 0.11478 0.00541089
23309 1 0.319318 0.298357 0.000733895
22374 1 0.245252 0.0940554 0.000968389
13274 1 0.271609 0.144612 0.00452002
23041 1 0.21126 0.00872565 0.00869921
23100 1 0.146233 0.46484 0.00134901
22375 1 0.421827 0.0969374 0.00636497
21235 1 0.481013 0.053648 0.0101174
14099 1 0.516992 0.0125796 0.00683203
11836 1 0.575475 0.0689207 0.00336886
11630 1 0.0436472 0.0624536 0.000121799
13613 1 0.668479 0.0175123 0.0275407
12910 1 0.674948 0.0393753 0.00360708
21310 1 0.594922 0.115558 0.00949198
13351 1 0.0967169 0.0251675 0.00418017
14763 1 0.743411 0.089854 0.00368598
9524 1 0.331255 0.502108 0.0339947
11137 1 0.85588 0.0431924 0.00827383
22489 1 0.741136 0.166815 0.0085444
23607 1 0.904442 0.0867305 0.0129012
9390 1 0.929862 0.0171299 0.00803335
2552 1 0.592463 0.224502 0.00102368
21319 1 1.00215 0.107463 0.0141302
2816 1 0.0597307 0.231229 0.00567972
21899 1 0.0299824 0.147688 0.00125413
10811 1 0.0380856 0.157247 0.0104136
22115 1 0.128044 0.185013 0.00833659
12824 1 0.256729 0.238421 0.00250806
10863 1 0.118499 0.185843 0.00117227
1452 1 0.196873 0.167855 0.00370643
13151 1 0.211179 0.151806 0.010205
2855 1 0.26723 0.207757 0.00930333
10691 1 0.461405 0.284898 0.00665402
14586 1 0.554345 0.482033 0.0117313
1000 1 0.323413 0.216797 0.00204193
760 1 0.383071 0.234045 0.00639721
13778 1 0.349618 0.154568 0.00654729
599 1 0.048319 0.470599 0.0320269
21210 1 0.440662 0.173594 0.00395569
2263 1 0.519013 0.22179 0.0136772
15455 1 0.832026 0.0089369 0.0299915
1669 1 0.539562 0.149554 0.00299989
22505 1 0.580417 0.182792 0.0080317
11975 1 0.64589 0.126798 0.00476573
9534 1 0.65608 0.224517 0.00524668
1160 1 0.735596 0.250686 0.00723442
15555 1 0.69599 0.286086 0.00103979
21139 1 0.722066 0.181353 0.00176411
23397 1 0.911819 0.19702 0.00501219
12592 1 0.799619 0.186991 0.0035732
2055 1 0.86851 0.157036 0.00943602
13002 1 0.832037 0.236552 0.00878356
20649 1 0.981397 0.102035 0.00594355
15310 1 0.901311 0.109348 0.00492201
23143 1 0.982611 0.191152 0.00635249
9173 1 0.470325 0.216317 -0.000207597
22977 1 0.0320203 0.288249 0.0020667
12423 1 0.149402 0.290307 0.0413378
641 1 0.0870454 0.346108 0.00350541
23101 1 0.17684 0.361404 0.000574447
22365 1 0.272562 0.373832 0.00140838
12742 1 0.119467 0.284459 0.00697807
12565 1 0.315195 0.27813 0.00777878
9395 1 0.237648 0.314783 0.00503445
9186 1 0.801131 0.469189 0.035748
22851 1 0.749356 0.0445784 0.0290521
1867 1 0.39112 0.330473 0.00395067
2064 1 0.369891 0.325228 0.010743
10587 1 0.32942 0.372581 0.00676894
23770 1 0.847862 0.242191 0.000890257
2344 1 0.569447 0.0340474 0.0272724
22614 1 0.5153 0.225074 0.00715112
13755 1 0.525434 0.298835 0.0120596
3228 1 0.564426 0.49859 0.00554933
12101 1 0.646678 0.284784 0.00889342
10452 1 0.404524 0.270895 -0.00024151
11142 1 0.583431 0.34844 0.0106591
2681 1 0.560635 0.295859 0.00571685
15345 1 0.619729 0.302887 0.000943486
13410 1 0.663273 0.353325 0.00349713
23761 1 0.721586 0.320535 0.00823797
93 1 0.661496 0.39867 0.0101886
2142 1 0.773291 0.307139 0.00319137
10640 1 0.872667 0.311386 0.00707529
22113 1 0.628166 -0.000370698 0.0217201
11532 1 1.00174 0.231741 0.0114013
22923 1 0.908542 0.243901 0.0104406
22772 1 0.956919 0.3216 0.00867561
204 1 0.955091 0.261077 0.00449665
23266 1 0.0441735 0.38787 0.00894045
2939 1 0.0815856 0.442259 0.0138782
14611 1 0.913775 0.0295601 0.0411634
2135 1 0.18168 0.340413 0.00896998
11977 1 0.0474322 0.44061 0.00296897
13904 1 0.212918 0.41514 0.00341837
2016 1 0.379861 0.271796 0.0375438
13686 1 0.294957 0.451399 0.00549941
14280 1 0.0497322 0.0137258 0.013919
29 1 0.815278 0.105184 0.00551456
12840 1 0.214818 0.497286 0.00622149
23524 1 0.354431 0.418951 0.00084834
13499 1 0.421608 0.481848 0.00289214
502 1 0.90477 0.380654 0.00472364
14497 1 0.504644 0.369794 0.0073919
10009 1 0.479482 0.466848 0.00882621
11444 1 0.5143 0.434704 0.00209762
21097 1 0.587775 0.424179 0.00814213
10248 1 0.797111 0.00708439 0.00275812
14367 1 0.581158 0.373974 0.00287735
2963 1 0.384798 0.0251506 0.000449554
2937 1 0.499123 0.493921 0.0157212
13568 1 0.742358 0.390566 0.0123838
21390 1 0.640115 0.446349 0.00358183
3114 1 0.712599 0.475034 0.00693281
3067 1 0.730286 0.383106 0.00530663
13779 1 0.80636 0.385437 0.00628791
12177 1 0.954481 0.123116 -0.000304442
9056 1 0.148033 0.000699441 0.0234748
9497 1 0.975807 0.432821 0.0079136
12225 1 0.0344227 0.477322 0.00918536
21838 1 0.863365 0.389302 0.0105826
10554 1 0.208382 0.0506695 0.0415723
12963 1 0.133024 0.0247809 0.0111718
13640 1 0.0952711 0.0935878 0.0127483
11720 1 0.0432553 0.0761848 0.0183275
22221 1 0.117182 0.10893 0.0215601
12563 1 0.167462 0.0959907 0.0143793
2779 1 0.11988 0.0349324 0.0183308
12273 1 0.327182 0.0264897 0.0339543
756 1 0.258755 0.0772077 0.00920663
11540 1 0.238759 0.0464771 0.0167604
9125 1 0.307613 0.0780028 0.0183415
145 1 0.31814 0.0534627 0.00481971
21488 1 0.364157 0.0876747 0.0118395
12185 1 0.369656 0.136944 0.0184372
23307 1 0.431522 0.0642867 0.015398
23326 1 0.5007 0.0307415 0.0222935
21072 1 0.643393 0.0456764 0.00944763
11731 1 0.554408 0.0612926 0.0125109
13173 1 0.643893 0.044127 0.0162738
2874 1 0.57971 0.0799387 0.0200232
1752 1 0.691973 0.103203 0.0101593
13902 1 0.729498 0.096628 0.016043
11121 1 0.494857 0.00554934 0.0146348
12354 1 0.797916 0.0429268 0.0164482
14711 1 0.879884 0.00851907 0.0137892
13641 1 0.762405 0.0569688 0.00912939
11558 1 0.822102 0.105547 0.013265
2442 1 0.882077 0.0462078 0.0188735
11411 1 0.966492 0.0295039 0.0146436
9847 1 0.949915 0.0915123 0.0186006
9333 1 0.994513 0.0301659 0.0231114
21857 1 0.14178 0.177096 0.0156705
14758 1 0.0568117 0.162522 0.0179049
21909 1 0.0983529 0.216367 0.0222041
23864 1 0.167859 0.160105 0.0221721
21755 1 0.190634 0.232967 0.00779673
13014 1 0.219206 0.230081 0.0153887
718 1 0.235566 0.13382 0.017778
12428 1 0.296889 0.13937 0.0127658
12294 1 0.298773 0.185275 0.0182301
23765 1 0.362109 0.196285 0.012686
1719 1 0.435129 0.240611 0.0125127
11401 1 0.410395 0.209935 0.0191067
9158 1 0.554406 0.15039 0.0149278
22514 1 0.507952 0.0952456 0.0164916
21239 1 0.503766 0.147172 0.00848016
23052 1 0.425096 0.149644 0.0116236
10314 1 0.471362 0.170755 0.0162583
1370 1 0.630581 0.125616 0.0163534
23582 1 0.623376 0.16891 0.0214591
8912 1 0.669823 0.0789663 0.0214942
9633 1 0.652227 0.23245 0.0168813
22725 1 0.664651 0.182821 0.0108629
21788 1 0.793111 0.178198 0.0137388
13203 1 0.717233 0.16141 0.0188506
908 1 0.731327 0.244349 0.0138961
12630 1 0.789127 0.131383 0.019322
11218 1 0.888328 0.166454 0.0158524
14836 1 0.762885 0.221047 0.0194784
14517 1 0.916144 0.192145 0.0215358
1038 1 0.980077 0.166614 0.0186956
22724 1 0.0220298 0.245582 0.0187141
13684 1 0.953364 0.157473 0.0110622
14890 1 0.996412 0.303805 0.0158376
13052 1 0.0321648 0.306308 0.00942111
23628 1 0.0859898 0.293602 0.0170411
2089 1 0.0931423 0.23914 0.0120078
164 1 0.250646 0.378847 0.0104753
13334 1 0.157661 0.28017 0.0135414
9138 1 0.252846 0.294068 0.011916
10520 1 0.103819 0.367148 0.0130628
14348 1 0.214103 0.340735 0.0157393
13761 1 0.128803 0.354969 0.0182937
23915 1 0.303917 0.333601 0.0153104
2237 1 0.320073 0.257061 0.014457
12779 1 0.324549 0.323605 0.0219339
79 1 0.389422 0.27839 0.0162043
12318 1 0.411922 0.40446 0.0115201
1036 1 0.365015 0.378391 0.0177719
22236 1 0.452561 0.337922 0.0130829
14618 1 0.512855 0.416678 0.0121586
1267 1 0.602666 0.2403 0.0117541
21702 1 0.591737 0.306173 0.0166877
2561 1 0.655393 0.326506 0.0142262
22030 1 0.738266 0.322078 0.0156607
1354 1 0.810132 0.31569 0.0115121
23406 1 0.842879 0.243428 0.0160691
15106 1 0.657894 0.34277 0.0207763
23012 1 0.851373 0.353778 0.0179714
11433 1 0.933275 0.230283 0.016601
22564 1 0.909172 0.315528 0.0136051
11751 1 0.0706138 0.449479 0.0203627
22048 1 0.0226101 0.386655 0.0147813
13338 1 0.148407 0.432495 0.0189044
23594 1 0.713651 0.416913 0.0349183
23715 1 0.113581 0.41783 0.00681725
13785 1 0.189347 0.416912 0.0133904
2928 1 0.26987 0.472615 0.0123743
10624 1 0.323739 0.414312 0.0126102
2633 1 0.371868 0.450685 0.00751528
21146 1 0.36096 0.463228 0.0168363
23967 1 0.457433 0.419842 0.0177954
829 1 0.44149 0.400243 0.00439302
23146 1 0.426742 0.479332 0.0132631
23744 1 0.355372 0.100504 0.0010895
10803 1 0.539374 0.435973 0.020285
1225 1 0.845288 0.46672 0.00416477
1948 1 0.643873 0.463385 0.012924
23171 1 0.602255 0.410385 0.0141045
13295 1 0.643598 0.436448 0.0221948
9766 1 0.693181 0.416119 0.0183852
10485 1 0.774778 0.382345 0.0191697
1748 1 0.731128 0.461602 0.0132838
10804 1 0.845996 0.427394 0.0159178
1198 1 0.79731 0.462792 0.0098544
11193 1 0.782383 0.46548 0.0195361
12212 1 0.914626 0.422597 0.019246
9571 1 0.934617 0.377461 0.0135938
14 1 0.990965 0.463163 0.0156104
2951 1 0.997317 0.411367 0.0214162
22142 1 0.0163341 0.117581 0.0234819
22110 1 0.0755801 0.0565442 0.0255025
10307 1 0.114064 0.0197314 0.0316434
2322 1 0.864824 0.492356 0.0192115
13007 1 0.193724 0.0737522 0.0218306
23055 1 0.192167 0.0130292 0.0284495
11976 1 0.143818 0.0847909 0.0273058
9020 1 0.215729 0.12575 0.0277316
13113 1 0.248772 0.0398157 0.0241088
22454 1 0.913393 0.467551 0.0258404
23174 1 0.334691 0.0952023 0.0293057
11104 1 0.45266 0.100203 0.0212144
10588 1 0.327625 0.0137016 0.0263595
11047 1 0.376503 0.0755553 0.0235739
23667 1 0.433976 0.0942908 0.0283122
10296 1 0.409102 0.0430625 0.0329795
9618 1 0.358997 0.0205571 0.0194467
20671 1 0.489211 0.0262192 0.029976
12834 1 0.508235 0.0921538 0.0259801
21096 1 0.593926 0.110189 0.0267988
1904 1 0.675987 0.0919975 0.0288997
9746 1 0.753767 0.0786695 0.0223967
21891 1 0.775485 0.117046 0.0308755
10563 1 0.904112 0.180091 0.0388001
14968 1 0.824911 0.0704672 0.0247351
9590 1 0.872241 0.0840858 0.030124
930 1 0.882141 0.122738 0.0216349
9845 1 0.000329887 0.364998 0.00190401
2245 1 0.905758 0.472576 0.0354735
13308 1 0.995985 0.0820041 0.0297572
12585 1 0.921884 0.0449283 0.025011
12533 1 0.0841177 0.153282 0.0268192
15300 1 0.2457 0.196059 0.0231665
14142 1 0.171515 0.230284 0.0262216
2175 1 0.134529 0.239419 0.0308205
14967 1 0.164054 0.253301 0.0192246
23417 1 0.15534 0.148601 0.0312237
10046 1 0.222514 0.201788 0.030437
804 1 0.289225 0.112299 0.0237929
11922 1 0.341473 0.237264 0.0226874
10288 1 0.310958 0.179357 0.0268204
2041 1 0.357729 0.239098 0.0319388
11443 1 0.390858 0.153531 0.0240524
13976 1 0.421757 0.226394 0.0272208
10949 1 0.467548 0.165887 0.0288458
21743 1 0.491658 0.200559 0.0232492
11910 1 0.543316 0.180195 0.0321869
2547 1 0.690371 0.22292 0.0239137
12363 1 0.543779 0.138203 0.0220609
12069 1 0.578576 0.20583 0.0267292
21599 1 0.747437 0.160278 0.0254147
14877 1 0.698858 0.214267 0.0302303
11825 1 0.783591 0.195227 0.0325426
13378 1 0.764149 0.24529 0.025695
14636 1 0.834244 0.149981 0.0273612
22906 1 0.843419 0.195704 0.022004
13933 1 0.936715 0.141198 0.027206
10992 1 0.0123692 0.192329 0.0246338
494 1 0.0107612 0.166118 0.0324304
21500 1 0.953262 0.261822 0.0228033
3153 1 0.0579144 0.231591 0.0275945
23427 1 0.103294 0.298727 0.0246686
23250 1 0.972412 0.349732 0.029717
2359 1 0.0210136 0.301193 0.0241374
13873 1 0.197943 0.301831 0.0268595
9963 1 0.146892 0.334908 0.0299204
11241 1 0.388727 0.314039 0.0246144
12624 1 0.200839 0.362037 0.0222656
9238 1 0.346752 0.38874 0.0265782
22970 1 0.263358 0.272752 0.0203918
1572 1 0.2845 0.257378 0.0279471
484 1 0.484482 0.273515 0.0178289
9648 1 0.434275 0.335236 0.0192002
12806 1 0.459349 0.2948 0.0244223
2515 1 0.556021 0.238157 0.0194189
9092 1 0.543374 0.293454 0.0236641
9863 1 0.517204 0.352106 0.017674
14372 1 0.589363 0.375973 0.0198078
22083 1 0.635315 0.253224 0.0303742
10688 1 0.619739 0.326434 0.0262575
8750 1 0.619839 0.255395 0.0231097
13324 1 0.708912 0.279529 0.0204569
619 1 0.694699 0.295587 0.0275221
620 1 0.748241 0.325353 0.0244181
1014 1 0.739232 0.267794 0.0327998
22381 1 0.672149 0.345411 0.032816
10945 1 0.793151 0.293497 0.0194749
1630 1 0.871534 0.279079 0.0217136
1504 1 0.820991 0.271689 0.0295694
330 1 0.896481 0.215454 0.0277973
13960 1 0.824473 0.349828 0.0245123
13095 1 0.933523 0.330859 0.0208845
12309 1 0.903346 0.309589 0.0273433
9914 1 0.975064 0.260447 0.0301482
21141 1 0.069563 0.365841 0.0208528
22783 1 0.0871012 0.470194 0.0267731
23342 1 0.0311041 0.391638 0.0272989
562 1 0.123103 0.414231 0.0329321
1293 1 0.181059 0.468562 0.0259248
11949 1 0.198614 0.392582 0.0290663
23457 1 0.2269 0.458334 0.0198835
14335 1 0.131269 0.398897 0.0251162
1515 1 0.27531 0.392802 0.0185878
12498 1 0.267554 0.41347 0.0254045
23302 1 0.481376 0.336921 1.49264e-05
13649 1 0.484344 0.0778244 0.00241915
14822 1 0.335718 0.459242 0.0236095
1799 1 0.424044 0.368314 0.028882
489 1 0.407014 0.413213 0.0230418
15032 1 0.435311 0.435071 0.0309395
180 1 0.570264 0.38984 0.0261029
13276 1 0.479079 0.468006 0.0252479
11515 1 0.484193 0.379423 0.0241611
12673 1 0.37614 0.0154895 0.00772367
14107 1 0.771205 0.477344 0.00231858
2066 1 0.64548 0.433271 0.0295035
1929 1 0.568282 0.484556 0.0276153
14811 1 0.964495 0.0563682 0.000259497
13911 1 0.69014 0.382973 0.0260288
14700 1 0.824289 0.184557 0.0406263
12980 1 0.718081 0.450633 0.0233876
21268 1 0.798187 0.485256 0.0280184
11486 1 0.839647 0.432223 0.0232087
12124 1 0.858017 0.427219 0.0301293
11524 1 0.774909 0.407974 0.0278248
11037 1 0.948869 0.412851 0.0311405
13077 1 0.913961 0.386465 0.0255495
23476 1 0.916276 0.337046 0.0356199
10532 1 0.0474514 0.0230383 0.0369461
22331 1 0.0656928 0.0880786 0.0317594
15039 1 0.170798 0.0171072 0.00271647
22412 1 0.310635 0.0272752 0.0128216
12357 1 0.171823 0.0621296 0.0340688
21572 1 0.708311 0.0116493 0.0136388
23465 1 0.264738 0.0977167 0.0366087
13084 1 0.2588 0.0509003 0.0310186
11205 1 0.361572 0.105392 0.0369126
1589 1 0.458274 0.117863 0.0343159
2138 1 0.36335 0.027046 0.0412154
23062 1 0.486185 0.022064 0.0359148
9132 1 0.535355 0.0890563 0.0330856
12126 1 0.509866 0.110064 0.0395447
11517 1 0.707787 0.00960527 0.0212062
15477 1 0.604104 0.0518608 0.0335726
23426 1 0.547717 0.0477784 0.0399295
12744 1 0.610136 0.100955 0.0400339
12931 1 0.618245 0.135657 0.0326542
10941 1 0.63682 0.0194036 0.0392825
2345 1 0.698992 0.152701 0.0337434
14355 1 0.784359 0.0126205 0.0344395
12689 1 0.127457 0.500201 0.0328449
283 1 0.702997 0.0745675 0.0344682
1547 1 0.428937 0.480612 0.020864
206 1 0.85366 0.046664 0.0359003
11702 1 0.780412 0.112725 0.0370966
10636 1 0.0271058 0.090501 0.0378587
12421 1 0.931006 0.0137232 0.0313922
13645 1 0.967489 0.0551789 0.0358504
842 1 0.890349 0.0259275 0.00167226
13764 1 0.446838 0.0545937 0.0405317
9620 1 0.101967 0.108011 0.0373868
23383 1 0.0778274 0.167735 0.0336665
2902 1 0.726766 0.481379 0.0304637
12811 1 0.156368 0.194745 0.0374997
23084 1 0.189024 0.127037 0.0384483
13075 1 0.290256 0.162256 0.0331767
22615 1 0.227029 0.211794 0.0375422
9686 1 0.388135 0.160208 0.0321454
9519 1 0.431694 0.225874 0.0340718
2934 1 0.489796 0.255466 0.0367164
12928 1 0.294506 0.184023 0.0390148
13288 1 0.373383 0.185476 0.0382777
3196 1 0.503503 0.242651 0.0282894
15048 1 0.569179 0.180832 0.0391416
10231 1 0.489717 0.181827 0.0366213
12224 1 0.654863 0.168738 0.0270978
21327 1 0.637356 0.209687 0.0361534
1857 1 0.667131 0.45824 0.0411888
9910 1 0.67765 0.151959 0.0394822
21769 1 0.740115 0.213155 0.0379907
13423 1 0.189413 0.274262 0.00151374
2556 1 0.941704 0.467138 0.0409883
9378 1 0.883426 0.112324 0.0392095
10097 1 0.841463 0.225656 0.0353643
21546 1 0.844446 0.151073 0.0340827
21185 1 0.932363 0.116619 0.0338898
2853 1 0.936848 0.19498 0.0328426
20932 1 0.969934 0.142315 0.0388901
3049 1 0.0361249 0.186467 0.0398239
22811 1 0.0588162 0.301937 0.0308656
13409 1 0.0281826 0.247285 0.035864
22284 1 0.42196 0.0135112 0.0262212
23512 1 0.200666 0.282114 0.0333866
14569 1 0.0994238 0.248785 0.0367654
13299 1 0.16358 0.364545 0.0371336
14507 1 0.255391 0.342156 0.0319408
8890 1 0.314693 0.339909 0.0379557
22512 1 0.271019 0.261844 0.0356542
12416 1 0.24083 0.335176 0.0392234
2811 1 0.314641 0.393363 0.0327203
1130 1 0.262536 0.330478 0.0252159
22002 1 0.350896 0.318223 0.0311258
9995 1 0.447755 0.298156 0.031944
3028 1 0.518772 0.333998 0.028886
23498 1 0.479869 0.370109 0.0345462
11040 1 0.538245 0.329741 0.0380526
15259 1 0.584874 0.360349 0.0335335
10742 1 0.563198 0.270724 0.0326842
2518 1 0.610795 0.295014 0.037102
15224 1 0.548931 0.40114 0.0405274
13675 1 0.717765 0.341321 0.0389085
2692 1 0.688434 0.271188 0.0368564
11442 1 0.749526 0.341763 0.0328209
23949 1 0.888603 0.274778 0.0396867
12775 1 0.898047 0.274089 0.0324022
23077 1 0.806287 0.311859 0.0376867
12154 1 0.842216 0.347131 0.0327083
14564 1 0.957488 0.258922 0.0365459
9860 1 0.996868 0.341244 0.0368322
23966 1 0.941893 0.493465 0.00467198
23037 1 0.801969 0.394448 0.0372906
12457 1 0.99853 0.474242 0.0261455
13799 1 0.0985557 0.446186 0.0379204
23661 1 0.0462665 0.38686 0.0332984
14487 1 0.0929211 0.332439 0.0373889
1109 1 0.438579 0.308863 0.0386664
14422 1 0.184963 0.470071 0.0365971
12483 1 0.313365 0.424417 0.0393173
11387 1 0.918879 0.458602 0.0111915
11759 1 0.235377 0.41071 0.0366621
13851 1 0.259916 0.453064 0.031415
15239 1 0.384066 0.441042 0.0359062
3395 1 0.391462 0.35768 0.0354699
10218 1 0.352873 0.451063 0.0294807
11780 1 0.515435 0.427732 0.030231
23642 1 0.982391 0.425538 0.0360553
12718 1 0.590811 0.460257 0.0350368
9762 1 0.505638 0.45821 0.0380546
1666 1 0.591629 0.476646 0.0410915
13886 1 0.634007 0.399036 0.0380768
11060 1 0.0290315 0.388849 0.0409832
342 1 0.438994 0.393991 0.0404192
464 1 0.00341062 0.00119645 0.00536658
9455 1 0.265192 0.486123 0.038577
11717 1 0.24545 0.00913162 0.00274332
11653 1 0.162866 -6.14278e-05 0.0382064
11970 1 0.31064 0.264233 0.0414428
1884 1 0.0297375 0.493097 0.0389247
10777 1 0.713114 0.00386722 0.0411153
12823 1 0.418746 0.472905 0.041348
10925 1 0.420305 0.127148 0.0403388
13690 1 0.0977647 0.0509754 0.0415646
21095 1 0.725829 0.0771057 0.0406163
13637 1 0.856056 0.160195 0.000382588
2100 1 0.109318 0.272811 0.000229084
12489 1 0.0805318 0.111831 0.0556861
23159 1 0.940698 0.0265898 0.0685166
2531 1 0.0905862 -0.00496826 0.0467821
23880 1 0.511191 0.182147 0.0439562
12037 1 0.157018 0.0680453 0.0533524
9890 1 0.235326 0.064459 0.0504936
12448 1 0.937169 0.318028 0.0426899
13046 1 0.348329 0.491615 0.062359
10574 1 0.496272 0.0252392 0.0449683
21937 1 0.297226 0.0549462 0.044439
818 1 0.330423 0.0742846 0.0503919
98 1 0.341138 0.113938 0.0427301
14255 1 0.438934 0.0300254 0.0520166
14755 1 0.287837 0.501738 0.0457664
714 1 0.404609 0.0511045 0.0461111
9100 1 0.437581 0.0161808 0.0714291
9243 1 0.566993 0.105474 0.0453618
2290 1 0.477157 0.0972613 0.0476236
13996 1 0.594669 0.0172758 0.0461189
14975 1 0.605493 0.104186 0.050606
22425 1 0.650964 0.0822288 0.0448197
2634 1 0.428532 0.0160901 0.0815034
21355 1 0.680087 0.0723205 0.0509866
14596 1 0.749867 0.0587932 0.0472274
13948 1 0.880459 0.0798983 0.0459123
9461 1 0.921417 0.105724 0.0509874
11226 1 0.811176 0.0948771 0.0498919
579 1 0.972701 0.467118 0.0797146
10926 1 0.666264 0.22793 0.0426577
13673 1 0.0106456 0.0834354 0.0489046
15072 1 0.715689 0.48726 0.0745502
10470 1 0.994582 0.143415 0.0523953
14950 1 0.865813 0.0170794 0.0507481
22939 1 0.136834 0.205878 0.0495704
1047 1 0.0883993 0.0791578 0.0488773
21160 1 0.0669129 0.15546 0.049887
9947 1 0.00584863 0.447314 0.045223
13625 1 0.182135 0.202102 0.0440459
14535 1 0.171922 0.126817 0.0493336
15427 1 0.219386 0.225264 0.0510289
11614 1 0.0814916 0.231266 0.0441055
23298 1 0.248322 0.114189 0.0443167
10845 1 0.257298 0.205161 0.0452586
12290 1 0.358813 0.211624 0.0442021
11436 1 0.404606 0.13197 0.0491834
3536 1 0.63727 0.501311 0.0671355
2677 1 0.540601 0.151215 0.0521679
2832 1 0.446008 0.215308 0.0485591
12257 1 0.523974 0.231354 0.048409
22915 1 0.158442 0.0307039 0.046996
13210 1 0.612823 0.174889 0.0438215
20910 1 0.5993 0.188673 0.0496651
13065 1 0.740592 0.250068 0.0432399
23243 1 0.739167 0.130064 0.0527857
12596 1 0.669893 0.154115 0.047204
9561 1 0.728199 0.205804 0.0499934
1373 1 0.655779 0.255565 0.0486035
10302 1 0.812424 0.114938 0.043413
12358 1 0.810386 0.183104 0.049199
3357 1 0.889862 0.155432 0.045194
14080 1 0.859663 0.156637 0.0546197
13487 1 0.855659 0.237177 0.0520678
2458 1 0.191949 0.496013 0.042611
12417 1 0.983638 0.166801 0.0462343
11256 1 0.964079 0.238026 0.0423912
2512 1 0.107181 0.362621 0.0431047
15187 1 0.0275821 0.31225 0.0530161
13277 1 0.092222 0.305497 0.0477152
2386 1 0.963632 0.280767 0.0491457
12620 1 0.172301 0.27974 0.0476554
2218 1 0.143385 0.361692 0.0503665
23472 1 0.202711 0.348346 0.0452666
13296 1 0.0238524 0.242703 0.0469708
612 1 0.0167812 0.01806 0.0431187
825 1 0.286133 0.35244 0.0449687
21664 1 0.0160763 0.00136452 0.0679254
1486 1 0.259769 0.30106 0.0491673
2641 1 0.0372706 0.289379 0.0418403
2096 1 0.326166 0.269934 0.0481121
11372 1 0.415176 0.27447 0.0454265
21898 1 0.379321 0.329998 0.0431062
11937 1 0.586418 0.255548 0.0421842
1328 1 0.493815 0.303279 0.0503413
22543 1 0.499187 0.264789 0.0436268
11656 1 0.495751 0.343497 0.0433267
2417 1 0.432422 0.372766 0.0482118
160 1 0.583879 0.338026 0.0431683
13198 1 0.592666 0.300985 0.0494093
23496 1 0.653612 0.357843 0.0495508
22959 1 0.661784 0.316508 0.0434685
12763 1 0.950487 0.0989226 0.0436253
12425 1 0.719755 0.299653 0.0477807
11641 1 0.82706 0.265624 0.0438064
2948 1 0.896294 0.241002 0.0453864
22322 1 0.784511 0.267527 0.0497116
14311 1 0.867179 0.304914 0.0485235
883 1 0.921178 0.363441 0.0517413
1617 1 0.993317 0.229517 0.0539927
14646 1 0.00596976 0.35097 0.0462782
692 1 0.0554978 0.460697 0.0508418
3303 1 0.0848337 0.433942 0.0451694
23129 1 0.0684056 0.384945 0.051258
23431 1 0.981472 0.423882 0.0527112
23896 1 0.164596 0.421038 0.0430587
1041 1 0.142075 0.443908 0.0493457
21111 1 0.743437 0.149812 0.0449647
2396 1 0.292484 0.438962 0.0499371
3118 1 0.230455 0.397667 0.0491024
11879 1 0.864578 0.245516 0.0788322
12282 1 0.434811 0.210634 0.0417674
10207 1 0.124455 0.0121316 0.0785147
133 1 0.156082 0.445326 0.0824949
2636 1 0.337337 0.360618 0.0492566
12120 1 0.34863 0.414149 0.0448867
15297 1 0.072885 0.494139 0.060474
9095 1 0.278278 0.0070465 0.0796824
23664 1 0.490381 0.433133 0.0526207
1254 1 0.488862 0.434034 0.0455693
1556 1 0.981976 0.220905 0.0831496
21659 1 0.547807 0.377151 0.049687
21180 1 0.624247 0.405897 0.0450311
15216 1 0.640057 0.456985 0.0504755
1392 1 0.705676 0.385361 0.044006
15165 1 0.750361 0.372781 0.0509166
10939 1 0.777437 0.346461 0.0441026
14607 1 0.720799 0.462499 0.053932
11823 1 0.719518 0.460132 0.0472023
13433 1 0.796496 0.423543 0.0464396
12130 1 0.810448 0.044101 0.0425172
14234 1 0.820587 0.36469 0.0505538
10179 1 0.938959 0.391329 0.0451398
12606 1 0.94547 0.491814 0.0481514
1876 1 0.882003 0.421421 0.0487965
15490 1 0.105401 0.0352042 0.0583449
2112 1 0.049806 0.0287068 0.0526094
22839 1 0.152857 0.366797 0.0824872
11858 1 0.0484397 0.120465 0.0436996
142 1 0.256111 0.133177 0.0524522
414 1 0.152465 0.0990851 0.0610132
1893 1 0.261235 0.158066 0.059876
14506 1 0.285478 0.0183959 0.0547543
22807 1 0.233721 0.0857196 0.0581084
12095 1 0.321715 0.10297 0.0590641
13823 1 0.347221 0.137182 0.0535571
22768 1 0.410999 0.0945679 0.0577744
21184 1 0.364434 0.0350467 0.0572229
587 1 0.459029 0.143493 0.0533693
12672 1 0.526536 0.0548056 0.0523792
13025 1 0.479869 0.0671965 0.0573879
14670 1 0.583867 0.414911 0.0760259
2236 1 0.608187 0.0174355 0.0529532
2766 1 0.640666 0.0753677 0.0564417
11761 1 0.572698 0.0999441 0.056015
11491 1 0.565071 0.0740566 0.0629634
10167 1 0.563729 0.160867 0.0626905
11788 1 0.726399 0.0753116 0.0575534
13159 1 0.742054 0.0251959 0.0616748
9717 1 0.772873 0.0240791 0.052035
22628 1 0.803606 0.098515 0.0574532
12683 1 0.874011 0.0634936 0.055782
23877 1 0.936495 0.0577739 0.0592365
13981 1 0.815369 0.0244605 0.0587933
13517 1 0.963184 0.0441099 0.052739
14090 1 0.015059 0.08153 0.0579003
9315 1 0.118688 0.17922 0.0565657
1680 1 0.075852 0.257599 0.0600517
13901 1 0.0744659 0.128881 0.0632023
22136 1 0.194277 0.143978 0.0558784
10864 1 0.159765 0.190321 0.0624162
14532 1 0.311769 0.148979 0.0472948
12708 1 0.260332 0.233901 0.0566332
2224 1 0.330709 0.192402 0.0584778
14305 1 0.302048 0.203701 0.05227
2333 1 0.414333 0.191592 0.0580278
601 1 0.385753 0.228539 0.0530529
812 1 0.383648 0.233161 0.0659497
880 1 0.500564 0.152695 0.0589514
1439 1 0.474451 0.21838 0.0617151
906 1 0.472147 0.225558 0.0550287
623 1 0.551682 0.231567 0.0546187
13523 1 0.603189 0.176875 0.057028
2325 1 0.620887 0.253824 0.0618773
14585 1 0.668369 0.156904 0.0552318
13728 1 0.72694 0.155052 0.0602067
1488 1 0.69801 0.236493 0.055106
23118 1 0.780408 0.194453 0.0567921
22390 1 0.866877 0.221619 0.0593899
9155 1 0.909999 0.127332 0.0597899
2600 1 0.929612 0.201806 0.0500586
12848 1 0.04006 0.174365 0.058017
14483 1 0.949415 0.192541 0.0581878
11942 1 0.0685398 0.231592 0.0531155
10333 1 0.988701 0.269853 0.060829
361 1 0.0676559 0.337968 0.0601334
1322 1 0.11967 0.289183 0.0546561
23362 1 0.175485 0.24449 0.0571448
844 1 0.154672 0.297309 0.0618879
23371 1 0.198387 0.306036 0.053436
1024 1 0.273089 0.360906 0.0529803
21973 1 0.260713 0.301658 0.0585463
12872 1 0.335991 0.295253 0.0557954
13189 1 0.3976 0.303923 0.0505957
13966 1 0.391865 0.3495 0.0573382
2926 1 0.473212 0.365548 0.0538558
540 1 0.473551 0.314493 0.058025
3523 1 0.446515 0.378116 0.0617029
10170 1 0.558782 0.319096 0.0553706
22103 1 0.623714 0.273671 0.0554762
14871 1 0.612289 0.341959 0.0608517
13307 1 0.687668 0.320496 0.0551163
533 1 0.698169 0.29034 0.0608776
11447 1 0.751263 0.224127 0.0626448
2296 1 0.775687 0.266183 0.0561507
905 1 0.605979 0.381846 0.0547034
3346 1 0.823321 0.25959 0.0645033
9457 1 0.858925 0.303396 0.0556808
13698 1 0.932054 0.279123 0.0552976
13791 1 0.894387 0.283821 0.0613348
10326 1 0.9797 0.341295 0.0571046
22938 1 0.904602 0.372832 0.0601361
12731 1 0.117923 0.437743 0.0560948
22775 1 0.141934 0.360095 0.0577219
2108 1 0.0126454 0.463767 0.0652429
23386 1 0.0853074 0.420353 0.0787002
14278 1 0.196848 0.406394 0.0545053
10981 1 0.158643 0.393947 0.0636302
14584 1 0.163812 0.469505 0.0607869
1695 1 0.221785 0.36875 0.0598235
10197 1 0.31689 0.409012 0.0556552
13582 1 0.240137 0.456208 0.05698
12903 1 0.22922 0.407297 0.0673019
11597 1 0.634346 0.0204279 0.0825487
22655 1 0.400883 0.433235 0.0505429
9591 1 0.339263 0.498399 0.0562543
22189 1 0.281972 0.417622 0.0631229
23600 1 0.360812 0.403041 0.0628238
1280 1 0.892805 0.448981 0.0795443
13092 1 0.530021 0.383064 0.0585465
22079 1 0.408684 0.435482 0.056874
859 1 0.919967 0.292949 0.0829019
14790 1 0.556979 0.434587 0.0532391
13017 1 0.562287 0.462291 0.0475341
22016 1 0.675706 0.407322 0.0566549
22143 1 0.804014 0.435397 0.0527329
1299 1 0.832678 0.403402 0.0606504
15011 1 0.743478 0.386306 0.0579095
21714 1 0.0297962 0.416375 0.0575218
11327 1 0.876577 0.432828 0.0559334
9750 1 0.947901 0.437408 0.0590399
3113 1 0.06783 0.0495713 0.0651373
1873 1 0.0758878 0.0060985 0.0726113
11042 1 0.780808 0.302977 0.0818582
2313 1 0.944667 0.0168287 0.0465766
2173 1 0.21078 0.103266 0.0699898
9372 1 0.317733 0.0222273 0.0621783
9645 1 0.201829 0.0540441 0.0645005
13863 1 0.25425 0.0221538 0.0692972
22750 1 0.338898 0.158568 0.0650955
11576 1 0.378867 0.0788222 0.0642626
1711 1 0.856846 0.357658 0.0429337
13577 1 0.436649 0.0895104 0.0694047
2169 1 0.494675 0.0460982 0.0736863
10327 1 0.480584 0.0985851 0.0635328
2018 1 0.430733 0.0305891 0.0642273
417 1 0.944399 0.432914 0.0736827
9152 1 0.632355 0.0417525 0.0690085
340 1 0.513172 0.0401214 0.0674515
13795 1 0.694336 0.0716828 0.0663093
10783 1 0.772944 0.113208 0.071937
9753 1 0.786579 0.032761 0.067548
557 1 0.86033 0.0809007 0.0640964
2038 1 0.930855 0.115051 0.0669267
14191 1 0.859681 0.0286885 0.0694626
12431 1 0.850534 0.494828 0.0519761
23733 1 0.9915 0.0777729 0.0710159
1208 1 0.997019 0.064798 0.0641927
2721 1 0.130686 0.0629787 0.0680555
1093 1 0.130658 0.143687 0.067107
22535 1 0.0726895 0.186516 0.0709311
12438 1 0.0339132 0.212586 0.0641152
13291 1 0.0615588 0.113815 0.0700099
21247 1 0.270098 0.152773 0.0715134
13840 1 0.209173 0.141937 0.0646108
15432 1 0.183791 0.202282 0.0693536
2586 1 0.148805 0.155896 0.0735494
12857 1 0.27415 0.0864859 0.0646173
15061 1 0.266147 0.194151 0.0662728
1870 1 0.258545 0.258333 0.0711494
193 1 0.326281 0.215345 0.0699426
23999 1 0.355164 0.108735 0.0709554
13660 1 0.426203 0.162648 0.0698621
11394 1 0.41791 0.154529 0.0637867
9160 1 0.405181 0.26634 0.0591807
9608 1 0.555988 0.10036 0.0698284
11094 1 0.508678 0.173549 0.0676037
14498 1 0.640424 0.113541 0.0613835
11426 1 0.624972 0.200029 0.0686302
13769 1 0.544052 0.241419 0.0616275
12787 1 0.654282 0.180621 0.0628045
13367 1 0.688015 0.103456 0.0719661
734 1 0.681137 0.188408 0.0732137
2188 1 0.768215 0.106745 0.0649174
21634 1 0.701539 0.153699 0.0667932
21166 1 0.844393 0.119763 0.0699175
14240 1 0.814631 0.161679 0.0614066
22408 1 0.914871 0.193373 0.0720096
478 1 0.77899 0.203554 0.0682729
1643 1 0.953519 0.202197 0.0647068
10495 1 0.994041 0.131147 0.0626712
23103 1 0.867849 0.18145 0.0656601
202 1 -0.000494408 0.171627 0.069053
466 1 0.899965 0.252583 0.0669866
11221 1 0.0475893 0.304514 0.0651609
9115 1 0.0410168 0.36697 0.0681999
23623 1 0.114315 0.2409 0.0660572
9207 1 0.115509 0.316736 0.0674173
14145 1 0.223102 0.250555 0.0642047
477 1 0.121444 0.267204 0.0734236
2401 1 0.195461 0.288897 0.0704599
14668 1 0.311979 0.254445 0.0634353
13951 1 0.308336 0.348718 0.0620023
845 1 0.332944 0.359999 0.074276
15113 1 0.374203 0.320298 0.0640023
13312 1 0.316867 0.313685 0.0681596
1755 1 0.406813 0.292356 0.0711808
1661 1 0.389539 0.37039 0.0696073
14229 1 0.448675 0.294123 0.0648654
22638 1 0.492244 0.248678 0.0688076
14015 1 0.470719 0.358274 0.0681926
1239 1 0.529537 0.320322 0.0645607
9285 1 0.581906 0.275677 0.069016