ITEM: TIMESTEP
6466602
ITEM: NUMBER OF ATOMS
24000
ITEM: BOX BOUNDS pp pp pp
-2.0834916256085023e-03 3.3247289394437317e+01
-2.0834916256085023e-03 3.3247289394437317e+01
-1.0580598646530746e+00 4.0000053069836633e+02
ITEM: ATOMS id type xs ys zs
9889 1 0.0973893 0.0892732 0.0129293
14662 1 0.270689 0.239666 0.000535629
23955 1 0.996864 0.103539 0.00358339
11540 1 0.0532546 0.0618722 0.00839069
1073 1 0.138859 0.0795475 0.00624603
13761 1 0.208995 0.126915 0.00804808
23794 1 0.227529 0.0438161 0.00628998
13568 1 0.283874 0.098772 0.00561231
22375 1 0.252853 0.0673941 0.0115739
22783 1 0.359699 0.0974607 0.00952645
21082 1 0.448648 0.122986 0.00325282
3004 1 0.382387 0.189416 0.00955485
8945 1 0.652328 0.37204 0.00345503
9316 1 0.37249 0.0681737 0.00265353
22851 1 0.453168 0.049356 0.00547841
8750 1 0.540635 0.034552 0.03103
14008 1 0.736878 0.479118 0.00616329
1328 1 0.576419 0.155749 0.00165918
23298 1 0.519516 0.0898175 0.00374393
9459 1 0.585222 0.0713309 0.00743414
11211 1 0.627397 0.0814872 0.00194296
3558 1 0.724223 0.0675574 0.0111344
22959 1 0.712021 0.0945712 0.00466885
23406 1 0.655781 0.0863803 0.00868082
14836 1 0.699446 0.0121039 0.00668269
1623 1 0.83173 0.0745513 0.00201418
11776 1 0.795149 0.0350694 0.00769592
8940 1 0.866628 0.0935689 0.00803387
23721 1 0.387986 0.0253454 0.0260152
23614 1 0.964908 0.0429141 0.00761173
404 1 0.761679 0.0163829 0.0014708
1801 1 0.355563 0.221654 0.00230573
12845 1 0.510855 0.000294331 0.00553372
10235 1 0.416534 0.491019 0.0347763
23894 1 0.047935 0.147938 0.00853917
10856 1 0.0323696 0.201587 0.00254717
11677 1 0.0785124 0.226131 0.0113498
193 1 0.132279 0.158839 0.00921431
10479 1 0.103539 0.196911 0.0040935
453 1 0.158172 0.240874 0.0075541
14781 1 0.450941 0.494892 0.0413025
13491 1 0.170437 0.143485 0.0021168
9105 1 0.292984 0.162806 0.00997723
23455 1 0.845474 0.490221 0.0221973
9990 1 0.22395 0.197245 0.00610075
2790 1 0.330961 0.148179 0.0033297
2314 1 0.432672 0.213454 0.00589164
641 1 0.497579 0.22779 0.0109899
9899 1 0.299473 0.244461 0.00818586
718 1 0.535579 0.216563 0.0043002
11185 1 0.19036 0.0149355 0.0113827
11064 1 0.622153 0.245014 0.00969007
21652 1 0.652203 0.165199 0.00515601
1208 1 0.697715 0.227717 0.00708202
10691 1 0.733276 0.149337 0.00830958
11517 1 0.658651 0.015781 0.0125618
2560 1 0.872406 0.159192 0.00544595
9406 1 0.855999 0.170471 0.0121676
13376 1 0.797633 0.134992 0.00569203
23018 1 0.782657 0.217506 0.0071332
325 1 0.935653 0.134248 0.00909009
1919 1 0.91949 0.223697 0.0122716
11360 1 0.944211 0.189937 0.00349836
11971 1 0.990688 0.187212 0.0112023
699 1 0.648012 0.469389 0.000912181
2574 1 0.122228 0.349126 0.00660282
11222 1 0.0293657 0.365556 0.00808877
13350 1 0.212438 0.356909 0.00420894
12525 1 0.194862 0.286368 0.00430834
21167 1 0.0692108 0.28602 0.00625841
1188 1 0.272349 0.30547 0.00376327
11128 1 0.284248 0.389678 0.00316897
12124 1 0.491542 0.0350704 0.0113871
2780 1 0.399625 0.281411 0.00557897
22884 1 0.336155 0.329597 0.00650207
21896 1 0.260734 0.492144 0.0263272
21185 1 0.354023 0.3667 0.000350896
1354 1 0.908382 0.107714 0.00183718
9861 1 0.484797 0.282253 0.00520711
1906 1 0.427064 0.350527 0.00522145
1370 1 0.416889 0.499631 0.0020748
1036 1 0.504222 0.394291 0.00580284
577 1 0.564694 0.2917 0.00217082
502 1 0.625129 0.335828 0.00949061
13559 1 0.565921 0.374957 0.0021522
11786 1 0.0967963 0.425949 0.00857795
166 1 0.735752 0.284367 0.00337399
13893 1 0.643051 0.29052 0.00297012
1064 1 0.698522 0.303673 0.0084917
1884 1 0.676514 0.391566 0.0115925
1758 1 0.717324 0.236988 0.0137768
2828 1 0.881914 0.314014 0.00230082
15432 1 0.82539 0.379819 0.0103316
21309 1 0.802016 0.314408 0.00493575
3117 1 0.948358 0.265402 0.00416637
10800 1 0.864275 0.228603 0.00662447
1323 1 0.978456 0.339709 0.00391203
22771 1 0.00482515 0.261698 0.00813618
13121 1 0.446738 0.409878 0.00115487
305 1 0.0749265 0.500896 0.00642412
22577 1 0.940886 0.470612 0.00147146
58 1 0.0369651 0.460111 0.0112986
21408 1 0.833251 0.48437 0.0309618
14089 1 0.167498 0.466379 0.0103077
12850 1 0.961902 0.320708 0.0338711
10202 1 0.172543 0.418879 0.00359655
9533 1 0.948497 0.408522 0.0344659
12297 1 0.227047 0.419553 0.0087827
21245 1 0.246341 0.461487 0.0015057
11251 1 0.30265 0.477873 0.00589631
9824 1 0.0967222 0.401872 0.000937916
11810 1 0.365799 0.42937 0.0058002
2064 1 0.563983 0.019239 0.000890484
13216 1 0.91597 0.0127136 0.00312244
14831 1 0.113907 0.269614 0.00157548
13335 1 0.438376 0.419726 0.00823925
14968 1 0.50217 0.465991 0.00277715
23716 1 0.57693 0.470067 0.00474234
716 1 0.660942 0.447449 0.00620796
2175 1 0.88471 0.451166 0.03927
11606 1 0.74297 0.367397 0.00722394
11935 1 0.659225 0.467842 0.0115432
10314 1 0.748773 0.00170418 0.0384266
23864 1 0.736252 0.444474 0.0111514
1904 1 0.808703 0.466731 0.008515
11434 1 0.803953 0.493682 0.0390738
13378 1 0.330639 0.32681 0.0408991
11581 1 0.971146 0.416598 0.00765745
11944 1 0.891868 0.449892 0.0105543
14586 1 0.0326042 0.444836 0.00326971
11090 1 0.885018 0.391895 0.00586547
3381 1 0.508601 0.0386365 0.0382881
13625 1 0.846478 0.418716 0.0339475
2267 1 0.107747 0.0142817 0.0115065
14367 1 0.0373429 0.0921847 0.0191579
21094 1 0.168101 0.0804767 0.014335
21023 1 0.127675 0.0289875 0.0189848
14661 1 0.227612 0.0482247 0.018084
22250 1 0.0598173 0.0773293 0.0397289
11947 1 0.307297 0.126411 0.0208729
2766 1 0.25861 0.138962 0.0159352
22193 1 0.325002 0.0277584 0.0175511
21875 1 0.0550358 0.317627 0.000291984
14230 1 0.695846 0.379967 0.0406548
10190 1 0.0721421 0.0138543 0.00264227
21993 1 0.376413 0.120481 0.0163389
21968 1 0.442138 0.117071 0.0113083
12382 1 0.406255 0.0303493 0.0115256
10257 1 0.548228 0.100969 0.0134262
22274 1 0.503813 0.0061522 0.0168714
74 1 0.13476 0.0454533 0.0361724
22287 1 0.631043 0.0796494 0.015707
9809 1 0.403058 0.0178779 0.0326198
1794 1 0.711917 0.0620607 0.0173242
2934 1 0.333236 0.46211 0.03841
10780 1 0.796801 0.0991788 0.0118126
13900 1 0.80911 0.0163905 0.0145394
1752 1 0.893123 0.026164 0.018153
12620 1 0.786562 0.0530714 0.0224353
11614 1 0.859233 0.0967424 0.0169762
164 1 0.949906 0.081099 0.0206184
21457 1 0.0389961 0.0227974 0.0144187
804 1 0.758332 0.188134 0.00215553
23728 1 0.926639 0.0615082 0.0132834
13147 1 0.0467321 0.164208 0.0154519
14507 1 0.0701302 0.15728 0.0230887
21910 1 0.98809 0.247279 0.0154048
23105 1 0.155323 0.228951 0.0144908
11743 1 0.116572 0.152437 0.017278
14517 1 0.167277 0.197681 0.0219747
12425 1 0.246776 0.232681 0.0127742
11357 1 0.190448 0.155094 0.0134055
1345 1 0.290413 0.283911 0.0181367
2816 1 0.33883 0.202584 0.0154666
21580 1 0.359286 0.267196 0.0127027
10160 1 0.427877 0.21822 0.0148541
12409 1 0.382198 0.254716 0.0199791
15345 1 0.503804 0.143522 0.00885783
908 1 0.504545 0.285939 0.0157234
22169 1 0.489119 0.155433 0.0168498
23307 1 0.566597 0.25795 0.0202809
11157 1 0.566228 0.207718 0.0141156
14877 1 0.641885 0.151904 0.0123623
2127 1 0.582591 0.153658 0.0180936
23889 1 0.577654 0.166274 0.00784118
470 1 0.778496 0.126121 0.0185194
23476 1 0.709568 0.134118 0.0149704
2942 1 0.659486 0.155934 0.0192391
13298 1 0.781134 0.187349 0.0141672
9519 1 0.783481 0.202636 0.0215748
21994 1 0.857148 0.172993 0.0197724
10004 1 0.856427 0.25425 0.0159548
13410 1 0.995047 0.0963158 0.0130627
820 1 0.936445 0.151322 0.0166154
692 1 0.921695 0.232589 0.02026
13014 1 0.939043 0.150406 0.0233315
2135 1 0.0325659 0.301057 0.0141494
12828 1 0.942062 0.319754 0.00951597
2928 1 0.0417869 0.342554 0.0204759
13094 1 0.0809665 0.363274 0.0136325
3189 1 0.165575 0.389711 0.012035
180 1 0.145062 0.304808 0.0122146
532 1 0.193863 0.356022 0.0186039
23841 1 0.208597 0.283138 0.0161499
1504 1 0.22757 0.328045 0.010377
8902 1 0.298893 0.310711 0.0122194
1876 1 0.288078 0.373929 0.0183317
12689 1 0.441559 0.290643 0.010233
905 1 0.389756 0.341685 0.0120562
9845 1 0.485232 0.355279 0.0112424
21355 1 0.570096 0.317911 0.0152341
11720 1 0.533186 0.406922 0.0144552
1175 1 0.440435 0.316862 0.0166927
904 1 0.554849 0.281289 0.00834868
12363 1 0.630632 0.244713 0.0167593
2695 1 0.557491 0.349258 0.0226609
13786 1 0.676393 0.300856 0.0149173
11507 1 0.691047 0.251839 0.0212118
9499 1 0.70949 0.329534 0.0206155
14335 1 0.787345 0.270414 0.0118096
9132 1 0.76655 0.277575 0.0193366
20760 1 0.830673 0.333179 0.0161527
14686 1 0.927422 0.309407 0.0164537
23410 1 0.864401 0.31037 0.0098231
2458 1 0.995239 0.279171 0.0222181
1148 1 0.900233 0.372232 0.0129456
23309 1 0.00180065 0.384188 0.0147382
10588 1 0.0516867 0.437671 0.0180193
12220 1 0.979515 0.432027 0.0214777
23509 1 0.316653 0.492214 0.0324084
22860 1 0.193881 0.441989 0.0209557
2528 1 0.119513 0.377799 0.0203925
23068 1 0.140898 0.45545 0.0162709
2983 1 0.314125 0.39446 0.0104164
21235 1 0.245697 0.433142 0.0157028
14372 1 0.240427 0.479985 0.039595
23132 1 0.297308 0.485292 0.0124282
1164 1 0.404283 0.468688 0.0125086
8848 1 0.439354 0.403193 0.0158716
15239 1 0.343248 0.437701 0.0163309
23665 1 0.496682 0.456197 0.00985139
23979 1 0.489343 0.466763 0.0171156
23567 1 0.562701 0.480255 0.0200198
23448 1 0.573944 0.489275 0.0115759
12567 1 0.866599 0.0127535 0.00909668
13002 1 0.585906 0.401668 0.00901889
22500 1 0.876768 0.209242 0.039514
23631 1 0.611687 0.408243 0.0157207
9262 1 0.706616 0.425735 0.0178703
12651 1 0.74785 0.340246 0.0136876
22635 1 0.788131 0.438503 0.0213985
11823 1 0.81612 0.422905 0.0151518
13413 1 0.782463 0.361107 0.0206635
20960 1 0.166356 0.0210873 0.00153219
23442 1 0.953363 0.442236 0.0145273
22221 1 0.958738 0.35873 0.0206648
2937 1 0.909862 0.473835 0.0192229
12264 1 0.0915308 0.0510218 0.0305152
22374 1 0.138078 0.108365 0.0235638
1406 1 0.0743335 0.0498894 0.0233726
2169 1 0.0132251 0.108729 0.0252838
1366 1 0.0225262 0.0975062 0.0317075
12079 1 0.170254 0.0288948 0.0240071
13853 1 0.164892 0.0781531 0.0288412
14875 1 0.319213 0.0532064 0.0239883
9805 1 0.237652 0.0745589 0.024936
22775 1 0.414483 0.170518 0.0198551
11970 1 0.448926 0.0566896 0.0247749
23893 1 0.450261 0.0791082 0.0170629
2344 1 0.378912 0.107587 0.0224351
15032 1 0.522557 0.0993729 0.0274273
13675 1 0.547934 0.0893428 0.0205534
9608 1 0.99911 0.324551 0.0409738
12806 1 0.521844 0.0211003 0.0237668
22412 1 0.590557 0.0521 0.0255468
21793 1 0.590595 0.129583 0.0254238
3049 1 0.579864 0.0223176 0.0183849
12080 1 0.65041 0.0761392 0.0225068
12910 1 0.608205 0.0856428 0.0314883
22110 1 0.731035 0.00879849 0.0321174
23255 1 0.708513 0.026356 0.0233018
13114 1 0.718622 0.121 0.0215558
23972 1 0.675871 0.118211 0.0285197
2493 1 0.809332 0.0487185 0.0297601
1373 1 0.479419 0.423661 0.0391177
13026 1 0.858174 0.0804717 0.0237093
22631 1 0.657375 0.0279017 0.0288342
11443 1 0.92546 0.0742598 0.0267965
10297 1 0.989485 0.021661 0.0264739
21912 1 0.0252866 0.184477 0.0272542
21146 1 0.099053 0.138928 0.0295284
9985 1 0.177543 0.158587 0.0284478
1867 1 0.212773 0.131547 0.0200341
13052 1 0.120752 0.215076 0.0273399
2907 1 0.25307 0.177667 0.0246183
13304 1 0.342519 0.190055 0.022641
14584 1 0.247636 0.210825 0.01873
14305 1 0.319087 0.133597 0.0277707
11589 1 0.272616 0.261866 0.0248474
10840 1 0.384073 0.10772 0.0296638
9620 1 0.399966 0.203167 0.0265026
23995 1 0.477768 0.142234 0.0229978
22030 1 0.483739 0.235524 0.0292235
1861 1 0.632852 0.207618 0.0244499
1933 1 0.536254 0.189659 0.02436
335 1 0.67345 0.129054 0.0354316
1522 1 0.639036 0.186196 0.0314908
2677 1 0.745991 0.0976397 0.0271713
13351 1 0.744709 0.147587 0.0322497
10122 1 0.720998 0.189535 0.0256657
21472 1 0.808739 0.1424 0.02465
428 1 0.791027 0.210369 0.0288311
3167 1 0.879813 0.152918 0.027757
22728 1 0.0101391 0.19138 0.0203105
10309 1 0.963537 0.138109 0.0306665
22300 1 0.133351 0.31491 0.0257011
1225 1 0.0678204 0.276119 0.0240483
21721 1 0.0808765 0.236925 0.0189929
22564 1 0.125212 0.295687 0.0176549
12167 1 0.20362 0.258742 0.0288761
12970 1 0.269019 0.327957 0.0251879
3404 1 0.189396 0.272601 0.0224956
11630 1 0.343562 0.294232 0.0247715
2066 1 0.191905 0.368901 0.0246547
2247 1 0.351739 0.331444 0.0184397
14944 1 0.372746 0.271225 0.0323898
13077 1 0.467643 0.228269 0.0201267
540 1 0.346636 0.390595 0.0231447
21503 1 0.532922 0.303453 0.0290835
22080 1 0.490608 0.360019 0.0195058
15039 1 0.416583 0.283969 0.0266878
21164 1 0.481368 0.30458 0.0233363
23391 1 0.624108 0.300678 0.023116
2808 1 0.580123 0.240452 0.027555
12928 1 0.607999 0.343923 0.0278363
21165 1 0.724518 0.26979 0.0270618
2641 1 0.645625 0.276091 0.0295814
12672 1 0.689786 0.346092 0.0273181
14822 1 0.779846 0.302043 0.0251332
22686 1 0.762072 0.330837 0.0312946
10936 1 0.834553 0.353978 0.0266163
1677 1 0.857917 0.232403 0.0249264
15037 1 0.947622 0.214234 0.027524
15473 1 0.868421 0.300434 0.0219813
22272 1 0.930286 0.302754 0.0270675
11133 1 0.976607 0.437688 0.0294405
23582 1 0.0389067 0.399353 0.0252858
14190 1 0.99762 0.351405 0.0279209
13187 1 0.0570471 0.433389 0.0312182
2795 1 0.11027 0.475044 0.0223378
1841 1 0.124823 0.421631 0.027331
1484 1 0.292601 0.395947 0.0296599
298 1 0.253084 0.163423 0.00102555
13886 1 0.262742 0.412879 0.0229888
10802 1 0.212079 0.42755 0.0281999
11437 1 0.60915 0.225765 0.00252816
13044 1 0.348488 0.457338 0.0257949
13249 1 0.41154 0.356955 0.0219112
858 1 0.418561 0.427317 0.0279625
599 1 0.418258 0.452061 0.0208277
12282 1 0.507833 0.438851 0.0230931
10555 1 0.654758 0.475399 0.025136
10056 1 0.295552 0.0219048 0.00360073
2442 1 0.635044 0.395 0.0222888
21141 1 0.637234 0.410606 0.0294011
15477 1 0.57777 0.436135 0.0253088
13779 1 0.757712 0.470333 0.0273083
2008 1 0.678443 0.49027 0.0310055
2862 1 0.71663 0.426616 0.0246312
12811 1 0.872148 0.399624 0.0203404
12580 1 0.844503 0.439501 0.0269162
23123 1 0.78244 0.399524 0.0293395
12148 1 0.923006 0.402564 0.026135
13209 1 0.888991 0.358753 0.0318312
1468 1 0.0249052 0.0143512 0.0342242
12930 1 0.153418 0.118616 0.0350934
23512 1 0.0741215 0.15233 0.0359292
21617 1 0.588567 0.0883761 0.0397254
1566 1 0.227621 0.152219 0.0380943
621 1 0.210738 0.0651004 0.035804
11788 1 0.75937 0.122938 0.0393798
21223 1 0.347042 0.0023627 0.0379584
1244 1 0.667519 0.49588 0.0175058
1929 1 0.241935 0.124268 0.0316373
23129 1 0.755036 0.462591 0.0343395
9916 1 0.301206 0.0932965 0.0388113
23417 1 0.44965 0.091622 0.0334913
12840 1 0.333447 0.0255246 0.00999833
13640 1 0.335605 0.0606994 0.0324389
11977 1 0.390028 0.106007 0.0380865
11799 1 0.778363 0.426536 0.00247912
14987 1 0.54021 0.0904783 0.0347033
14229 1 0.588042 0.159441 0.0367705
14569 1 0.033883 0.481487 0.0245854
22780 1 0.668411 0.0476957 0.0369871
1630 1 0.282183 0.00640367 0.0355447
22474 1 0.674687 0.106877 0.0415809
22078 1 0.736591 0.0724278 0.0339414
645 1 0.557997 0.431733 0.0387991
623 1 0.824192 0.0735271 0.0361972
829 1 0.657758 0.441289 0.0371296
22189 1 0.740656 0.458925 0.0412486
9762 1 0.871888 0.0312229 0.03187
13468 1 0.902037 0.0393511 0.0395121
21556 1 0.56605 0.00166544 0.0117971
12916 1 0.978601 0.103878 0.0374188
21160 1 0.945116 0.0489584 0.0334331
2155 1 0.42451 0.0300777 0.0382659
13764 1 0.945624 0.181271 0.0383559
10777 1 0.0777159 0.225957 0.0352529
236 1 0.00270359 0.184455 0.0340106
22967 1 0.445877 0.348864 0.0414436
9138 1 0.157526 0.208103 0.033472
14497 1 0.229158 0.229992 0.037277
21345 1 0.312491 0.161209 0.0361524
22942 1 0.263964 0.0320428 0.0297766
12432 1 0.245356 0.195227 0.0319052
14649 1 0.847035 0.496455 0.0149429
12206 1 0.448955 0.155568 0.0293268
12585 1 0.389682 0.185418 0.0328313
10069 1 0.402781 0.0300819 0.0194416
9800 1 0.552928 0.165184 0.030761
12423 1 0.49427 0.145803 0.0371895
2712 1 0.465026 0.216963 0.0362999
1690 1 0.554438 0.232642 0.0344935
14018 1 0.624462 0.231986 0.0363828
12731 1 0.579586 0.271004 0.0408195
12931 1 0.716222 0.198607 0.0392469
12212 1 0.810655 0.185636 0.0367342
13241 1 0.882714 0.212512 0.0333046
15243 1 0.816197 0.128331 0.0311201
14888 1 0.803454 0.250111 0.040717
22414 1 0.297853 0.479316 0.0197807
23371 1 0.897802 0.116004 0.0344486
14489 1 0.99825 0.228066 0.0408195
14355 1 0.949484 0.242039 0.0349494
10564 1 0.113532 0.32955 0.037648
14646 1 0.0302958 0.279574 0.0359865
14535 1 0.106096 0.28047 0.0320242
12918 1 0.0684053 0.341362 0.0284416
15103 1 0.168378 0.250112 0.0411761
23326 1 0.188849 0.292897 0.0343872
15188 1 0.259515 0.319565 0.038304
1753 1 0.30961 0.262255 0.0369365
1926 1 0.261007 0.285714 0.0316566
14 1 0.289792 0.407536 0.0372061
11836 1 0.313498 0.218283 0.0297217
15141 1 0.325457 0.338915 0.0339427
13112 1 0.44271 0.409096 0.0337202
9187 1 0.40139 0.278716 0.0385867
12217 1 0.376969 0.352018 0.0289938
22602 1 0.597358 0.0134105 0.0377739
12372 1 0.450998 0.313308 0.0321236
2054 1 0.50576 0.353581 0.0354963
22906 1 0.548207 0.379807 0.0300527
13686 1 0.911933 0.459662 0.0311284
10859 1 0.617377 0.381008 0.0352803
13565 1 0.593325 0.303828 0.0343542
14210 1 0.658675 0.285107 0.04001
1593 1 0.721431 0.222458 0.0325041
484 1 0.760698 0.376124 0.0372728
14243 1 0.704927 0.400166 0.0330812
1912 1 0.67975 0.313793 0.0336522
10563 1 0.740471 0.296725 0.0379162
14470 1 0.822795 0.346255 0.0358464
22961 1 0.802773 0.2686 0.0343719
1755 1 0.872577 0.283559 0.036219
2794 1 0.0103363 0.277051 0.0299228
9434 1 0.843571 0.290043 0.0294712
1783 1 0.996814 0.0239279 0.0198976
2396 1 0.0395053 0.363062 0.0342186
11007 1 0.932175 0.270197 0.0415644
3321 1 0.505475 0.447794 0.0313347
21097 1 0.346134 0.483617 7.02688e-05
13851 1 0.587424 0.459512 0.0337296
9914 1 0.0219089 0.434996 0.0375874
12169 1 0.219765 0.36374 0.032445
14857 1 0.154873 0.464574 0.032407
21180 1 0.139352 0.373771 0.031603
22115 1 0.185023 0.414782 0.0382842
3118 1 0.105879 0.407726 0.0380052
14410 1 0.899225 0.359256 0.0390836
21255 1 0.493379 0.280309 0.0382951
1515 1 0.236967 0.454558 0.033325
1134 1 0.475028 0.372848 0.0266994
13471 1 0.369245 0.429764 0.0325342
2191 1 0.397536 0.350818 0.0356232
14729 1 0.394042 0.419333 0.0402652
9281 1 0.453908 0.498316 0.0276214
13277 1 0.996635 0.0456071 0.0413981
2561 1 0.363106 0.205996 0.0391092
14827 1 0.0672387 0.130756 0.00266416
12535 1 0.137924 0.179292 0.0396859
21559 1 0.883872 0.479995 0.00416618
23397 1 0.7544 0.495836 0.01596
14547 1 0.180624 0.00463435 0.0311918
1544 1 0.947621 0.493855 0.0378813
10178 1 0.184137 0.34285 0.0413148
11205 1 0.173506 0.103752 0.0414424
9995 1 0.235738 0.0344358 0.0410572
354 1 0.43019 0.160005 0.0413341
1683 1 0.525646 0.207883 0.0413649
11652 1 0.917056 0.375626 0.000124425
22983 1 0.416124 0.317943 2.85301e-05
9996 1 0.867899 0.0175761 0.0764034
884 1 0.0756594 0.0506841 0.0498099
13403 1 0.101432 0.114929 0.0448785
203 1 0.141627 0.0354729 0.0427277
11139 1 0.32301 0.0432277 0.0429894
2009 1 0.0219295 0.163838 0.042535
15489 1 0.965086 0.446624 0.0772116
1625 1 0.217038 0.0563954 0.0472135
11822 1 0.131529 0.000253267 0.0817668
1319 1 0.423258 0.0720079 0.0516666
10114 1 0.396777 0.440116 0.0481081
13202 1 0.864705 0.00992597 0.0599952
13325 1 0.203859 0.157805 0.0461607
1610 1 0.455431 0.134582 0.0470431
14066 1 0.492023 0.0569858 0.0482888
15456 1 0.461727 0.0396588 0.0757072
22628 1 0.560828 0.0809683 0.0491865
12416 1 0.691486 0.00170702 0.0513616
714 1 0.63413 0.0417353 0.0452663
13203 1 0.670385 0.110425 0.0502597
10231 1 0.605895 0.12086 0.0459394
23375 1 0.732548 0.0623528 0.0516268
13366 1 0.0569748 0.477624 0.075174
23130 1 0.228942 0.0153679 0.0814757
21108 1 0.919818 0.0878569 0.0499596
966 1 0.863154 0.0513355 0.0458151
1300 1 0.35 0.0260149 0.0489735
1680 1 0.940957 0.0272141 0.0451426
14390 1 0.299592 0.170524 0.0427009
23514 1 0.452206 0.087926 0.0417872
22692 1 0.0762168 0.0486598 0.078256
23314 1 0.0351899 0.192596 0.0479146
11491 1 0.0333013 0.121119 0.052128
14997 1 0.161057 0.105307 0.0503642
13912 1 0.1471 0.202404 0.0460218
14381 1 0.23624 0.240155 0.043903
23613 1 0.210894 0.206993 0.0514495
11732 1 0.278236 0.108607 0.0450364
22725 1 0.29828 0.176725 0.0500258
9874 1 0.795144 0.0191454 0.0480719
22642 1 0.38699 0.198825 0.0459651
10653 1 0.449958 0.228699 0.0431399
13752 1 0.398478 0.162302 0.0516375
22750 1 0.409088 0.241289 0.0524916
13996 1 0.522218 0.471009 0.0740024
10980 1 0.548108 0.261446 0.0469334
854 1 0.762129 0.0185647 0.0646214
9953 1 0.563162 0.177945 0.049028
79 1 0.476512 0.204515 0.0484711
23674 1 0.207854 0.265855 0.0829787
14532 1 0.642833 0.193175 0.0509423
9860 1 0.744852 0.176489 0.0515744
407 1 0.783047 0.187886 0.0451302
1526 1 0.716609 0.143116 0.0452726
1813 1 0.590913 0.0160066 0.0748755
754 1 0.797321 0.119452 0.0481463
48 1 0.825564 0.188781 0.0539427
15009 1 0.87828 0.151724 0.0478918
13512 1 0.952747 0.191862 0.0457239
13821 1 0.890305 0.226422 0.0513457
14203 1 0.116831 0.474478 0.0805016
11727 1 0.0797376 0.320285 0.0431153
14090 1 0.0314124 0.348673 0.0480388
9035 1 0.086955 0.261887 0.0489805
1429 1 0.158204 0.289728 0.0469686
14645 1 0.110945 0.338794 0.0502607
13690 1 0.385767 0.00345748 0.0609611
13933 1 0.260771 0.313464 0.0455822
14361 1 0.325034 0.251139 0.04566
2778 1 0.336781 0.31018 0.0501225
12274 1 0.31214 0.24827 0.0541376
1639 1 0.406122 0.284323 0.0458312
15255 1 0.37793 0.325997 0.0567029
756 1 0.100873 0.495298 0.0423823
2776 1 0.473462 0.296585 0.0479094
14755 1 0.567752 0.34374 0.0485585
11401 1 0.487797 0.372515 0.0527189
1226 1 0.526276 0.34005 0.0419438
10390 1 0.626156 0.278326 0.0458875
14653 1 0.641791 0.380099 0.0474352
1901 1 0.442493 0.00407706 0.0443506
23383 1 0.589888 0.258872 0.0521289
13084 1 0.766562 0.295192 0.0447952
23035 1 0.693688 0.323212 0.0452472
11104 1 0.70277 0.233972 0.0457217
14655 1 0.700648 0.35811 0.0513539
9315 1 0.857037 0.228334 0.0463289
1198 1 0.775942 0.316578 0.0523107
10054 1 0.847991 0.304458 0.0435982
283 1 0.0210094 0.269713 0.0460068
22663 1 0.937655 0.280973 0.0478444
13087 1 0.331626 0.0205466 0.0793227
11361 1 0.927363 0.322977 0.0531913
2112 1 0.947166 0.365463 0.0484021
22236 1 0.119238 0.408589 0.0445312
23548 1 0.0426892 0.407542 0.0429704
22456 1 0.0826202 0.41751 0.0508453
11949 1 0.187899 0.452021 0.0458535
10192 1 0.183295 0.366202 0.0477197
142 1 0.247312 0.421801 0.0530138
702 1 0.245068 0.395143 0.0423628
340 1 0.308143 0.38143 0.0487742
10009 1 0.380774 0.36562 0.0456592
9152 1 0.465079 0.403028 0.0459721
2440 1 0.46033 0.500159 0.0477388
12779 1 0.523021 0.478463 0.0509161
12489 1 0.547456 0.416172 0.0453401
14812 1 0.975932 0.500899 0.0629896
13046 1 0.593419 0.479938 0.0470508
22789 1 0.712513 0.0467633 0.0436755
9561 1 0.312604 0.00375828 0.0567992
13113 1 0.675108 0.446276 0.0525409
23250 1 0.759431 0.420268 0.0521224
622 1 0.761685 0.376725 0.044898
2926 1 0.699805 0.440036 0.0459115
2671 1 0.80823 0.464035 0.0454049
14348 1 0.851194 0.443234 0.0530545
12068 1 0.831798 0.379593 0.0487694
10116 1 0.483747 0.218586 0.0827588
9028 1 0.737365 0.0651996 0.0706136
12708 1 0.934583 0.478517 0.0508975
14356 1 0.999031 0.438011 0.0502112
9708 1 0.893653 0.420872 0.0458254
23126 1 0.00623824 0.0896964 0.0462523
15341 1 0.0487715 0.0607966 0.0565162
1384 1 0.101595 0.114198 0.0557892
860 1 0.150775 0.0293761 0.0498782
202 1 0.125566 0.0404137 0.0561336
9670 1 0.200868 0.0664084 0.0556042
11532 1 0.282132 0.0556722 0.0516131
1952 1 0.242075 0.0228294 0.0606073
21283 1 0.224554 0.120386 0.0617044
680 1 0.238203 0.122229 0.0515102
11256 1 0.324774 0.0503386 0.0619227
533 1 0.0482155 0.434087 0.082219
11278 1 0.375735 0.061084 0.0570739
1666 1 0.508838 0.139226 0.0530471
13159 1 0.53202 0.0677928 0.0554328
13595 1 0.519465 0.13096 0.0591288
3010 1 0.426505 0.0636145 0.0635142
14371 1 0.45227 0.0411904 0.0563206
22939 1 0.62652 0.0534472 0.0548557
10179 1 0.597934 0.127732 0.0537527
13958 1 0.600194 0.0694695 0.0614029
13065 1 0.63089 0.161884 0.0609349
2963 1 0.687684 0.075979 0.0574167
181 1 0.725254 0.0859432 0.0622152
11825 1 0.791822 0.183637 0.0596532
2950 1 0.0876292 -7.44615e-05 0.0629725
22036 1 0.831724 0.103085 0.0592212
15431 1 0.898075 0.138541 0.0558161
15166 1 0.286465 0.471194 0.0459044
838 1 0.90625 0.00403519 0.0527151
11450 1 0.971598 0.127645 0.0566213
11372 1 0.983874 0.0451501 0.051598
478 1 0.965511 0.195776 0.0524282
1336 1 0.111356 0.167283 0.0510789
10977 1 0.0411993 0.214992 0.0541445
21398 1 0.0451904 0.151997 0.0582679
2173 1 0.174771 0.152148 0.0552759
21681 1 0.139657 0.151506 0.0612562
12648 1 0.187964 0.215534 0.0601372
21409 1 0.109758 0.206302 0.0576648
22839 1 0.342382 0.105375 0.0514148
9745 1 0.258219 0.201319 0.0566577
23984 1 0.287926 0.103809 0.0568471
2016 1 0.438439 0.117272 0.0582631
21314 1 0.346183 0.174049 0.0558184
23118 1 0.360335 0.218354 0.0625757
11966 1 0.58843 0.213839 0.0566402
823 1 0.493207 0.226342 0.0555866
2783 1 0.710191 0.254799 0.0517084
9 1 0.693207 0.167413 0.057658
2480 1 0.605257 0.26577 0.0630848
12414 1 0.66321 0.2418 0.0582798
751 1 0.763308 0.238895 0.0563092
13717 1 0.761966 0.124596 0.0558276
210 1 0.715973 0.254342 0.0627282
10964 1 0.841096 0.0655102 0.0524579
11194 1 0.87467 0.212785 0.0601508
12695 1 0.809429 0.260104 0.0622932
3379 1 0.8377 0.156405 0.0641559
11072 1 0.00130111 0.277479 0.0524718
9372 1 0.916828 0.267324 0.0567731
8912 1 0.988897 0.215958 0.0594919
906 1 0.995485 0.304765 0.0587874
14234 1 -8.21597e-05 0.375997 0.0553258
486 1 0.0749872 0.303485 0.0566742
2250 1 0.0669674 0.241139 0.0625057
2366 1 0.221368 0.277412 0.0569535
21184 1 0.158428 0.254492 0.0534852
22143 1 0.149035 0.33281 0.055576
11597 1 0.23566 0.272713 0.0510308
1041 1 0.21613 0.354286 0.0600901
10377 1 0.290541 0.31977 0.0573569
9351 1 0.329805 0.38592 0.0543536
13948 1 0.239333 0.342504 0.052565
13135 1 0.425667 0.192542 0.0576482
14966 1 0.382402 0.308336 0.0638279
21811 1 0.530423 0.302749 0.053995
2700 1 0.427258 0.337651 0.0507392
182 1 0.494455 0.364382 0.0597686
14644 1 0.561649 0.367494 0.0554636
1711 1 0.525217 0.297726 0.0619229
14871 1 0.560328 0.393508 0.0628046
2656 1 0.642254 0.319464 0.0535556
15072 1 0.602271 0.307824 0.0583282
21954 1 0.670016 0.331486 0.0621701
1643 1 0.709136 0.302292 0.0569926
10268 1 0.795639 0.241996 0.0497638
10142 1 0.856723 0.298967 0.0506384
392 1 0.78667 0.325574 0.0597972
11398 1 0.834279 0.267359 0.0554155
369 1 0.883521 0.302074 0.0623095
14885 1 0.821279 0.385018 0.0667239
10326 1 0.933395 0.365652 0.0593982
13288 1 0.00312258 0.378841 0.0623352
14958 1 0.357448 0.127592 0.0445929
3494 1 0.0818076 0.403878 0.0572074
11040 1 0.0302159 0.469998 0.0567509
21844 1 0.167487 0.405664 0.0534867
14145 1 0.142469 0.368845 0.0612256
14618 1 0.203294 0.432809 0.0584705
1012 1 0.284336 0.415397 0.0588064
14861 1 0.351099 0.382074 0.0641654
2471 1 0.285302 0.482142 0.062966
12457 1 0.320365 0.467872 0.0523637
22788 1 0.358654 0.457902 0.0587175
11461 1 0.411285 0.400458 0.0537198
10234 1 0.434214 0.462343 0.0568126
3509 1 0.387256 0.452943 0.0656663
14666 1 0.156832 0.0297272 0.0754964
13992 1 0.505156 0.430797 0.0566523
15011 1 0.645484 0.389109 0.0571285
1165 1 0.578071 0.463468 0.0615807
9381 1 0.569658 0.182781 0.0829801
13684 1 0.588687 0.426304 0.0527756
2386 1 0.647897 0.462238 0.0585364
23999 1 0.730605 0.464599 0.0574534
2290 1 0.718498 0.371553 0.0587255
9770 1 0.820126 0.479831 0.0619969
21133 1 0.843524 0.353926 0.0555085
1567 1 0.68507 0.379234 0.0820644
13799 1 0.787477 0.407806 0.0596379
22002 1 0.888849 0.422721 0.0610887
13291 1 0.612528 0.0305798 0.0684994
23431 1 0.911443 0.395067 0.0541952
13103 1 0.962708 0.455092 0.0575594
23812 1 0.0410993 0.0245818 0.0677726
21419 1 0.066198 0.0898151 0.0632221
21350 1 0.0348611 0.103248 0.0702596
1569 1 0.166853 0.0646212 0.0616587
15061 1 0.111122 0.066436 0.0696143
23595 1 0.262168 0.106961 0.0672293
14074 1 0.0794795 0.00377986 0.0454241
3287 1 0.37389 0.12723 0.0607427
2282 1 0.390335 0.0192564 0.0682135
3133 1 0.348503 0.101259 0.0666026
2496 1 0.427661 0.0971099 0.0701255
9378 1 0.471427 0.0173724 0.0688389
12744 1 0.511592 0.0581563 0.0628846
11579 1 0.502015 0.123771 0.0667446
14233 1 0.622855 0.432635 0.0421406
2028 1 0.92569 0.0100684 0.0641387
11650 1 0.679862 0.0388179 0.0649534
579 1 0.580536 0.123953 0.0662738
14585 1 0.544859 0.0513924 0.0683804
2130 1 0.593858 0.0943775 0.0734761
1518 1 0.398214 0.0561857 0.0448993
1595 1 0.415545 0.0159588 0.0821261
712 1 0.67255 0.114548 0.0668804
11342 1 0.729231 0.142968 0.0720809
23093 1 0.780766 0.102962 0.0663651
15063 1 0.86963 0.0657284 0.0650866
13299 1 0.117737 0.454762 0.0621974
21524 1 0.996428 0.0450156 0.0609817
13149 1 0.921063 0.131711 0.0632544
8947 1 0.913769 0.0649376 0.0579307
14173 1 0.957637 0.0926508 0.067216
22926 1 0.0046334 0.14842 0.0638568
13392 1 0.0823069 0.170995 0.0668492
13586 1 0.147886 0.230588 0.0669724
1928 1 0.0402005 0.194592 0.0720329
734 1 0.122357 0.137189 0.0729943
10573 1 0.232493 0.198635 0.065122
2922 1 0.172447 0.144625 0.0673235
1578 1 0.203155 0.201064 0.0719272
322 1 0.30243 0.160967 0.0615113
9184 1 0.293848 0.245532 0.0608
22863 1 0.290154 0.185772 0.0683364
10603 1 0.321251 0.254107 0.0666051
14227 1 0.365667 0.172735 0.0694242
14352 1 0.43201 0.158504 0.0648106
1422 1 0.451246 0.255584 0.0617687
12038 1 0.523856 0.194607 0.0638467
1553 1 0.478822 0.267159 0.0686237
11156 1 0.445125 0.180377 0.071443
342 1 0.536451 0.187565 0.0707515
11626 1 0.610731 0.194694 0.0666254
23603 1 0.55189 0.260056 0.06797
14228 1 0.730967 0.154509 0.0647477
12946 1 0.682357 0.205148 0.069224
13070 1 0.805456 0.179745 0.0708994
22829 1 0.760692 0.238333 0.067308
2138 1 0.848613 0.221386 0.067078
11226 1 0.851382 0.238884 0.0743374
22454 1 0.936795 0.213372 0.0649259
1396 1 0.962891 0.142336 0.0722768
14483 1 0.94467 0.234225 0.0724879
12475 1 0.00762736 0.245254 0.0672436
13911 1 0.100802 0.304583 0.0671101
2218 1 0.131434 0.283667 0.061426
21086 1 0.180624 0.342545 0.0666203
15187 1 0.207655 0.283977 0.0639075
13495 1 0.158396 0.296063 0.0716762
10134 1 0.29726 0.325212 0.0635759
3957 1 0.260877 0.353022 0.0696111
12049 1 0.248511 0.271618 0.0701418
21128 1 0.458686 0.304271 0.0556409
1009 1 0.440486 0.349702 0.0674724
12657 1 0.353448 0.340447 0.0693031
10340 1 0.393974 0.404675 0.0710204
10398 1 0.531906 0.331133 0.0684414
11760 1 0.604702 0.341762 0.0667395
14950 1 0.655968 0.285585 0.068111
11910 1 0.589134 0.326159 0.0734487
15035 1 0.681705 0.344761 0.0745325
419 1 0.633234 0.399872 0.0719805